MODEL 1
REMARK VINA RESULT:      -7.2      0.000      0.000
REMARK  5 active torsions:
REMARK  status: ('A' for Active; 'I' for Inactive)
REMARK    1  A    between atoms: C_2  and  C_20 
REMARK    2  A    between atoms: O_4  and  C_22 
REMARK    3  A    between atoms: O_6  and  C_20 
REMARK    4  A    between atoms: C_14  and  N_16 
REMARK    5  A    between atoms: C_24  and  O_25 
ROOT
HETATM    1  C   UNL     1      78.395 184.015 -25.226  1.00  0.00     0.230 C 
HETATM    2  N   UNL     1      78.069 185.426 -25.118  1.00  0.00    -0.032 N 
ATOM      3  HN1 UNL     1      78.662 185.997 -25.720  1.00  0.00     0.281 HD
ATOM      4  HN2 UNL     1      78.349 185.810 -24.216  1.00  0.00     0.281 HD
HETATM    5  C   UNL     1      77.205 183.323 -25.860  1.00  0.00     0.029 C 
HETATM    6  C   UNL     1      79.643 183.491 -25.925  1.00  0.00     0.281 C 
HETATM    7  C   UNL     1      76.647 185.653 -25.387  1.00  0.00     0.253 C 
HETATM    8  C   UNL     1      79.175 182.298 -26.742  1.00  0.00     0.233 C 
HETATM    9  C   UNL     1      76.096 184.345 -25.971  1.00  0.00     0.081 C 
HETATM   10  C   UNL     1      77.717 182.605 -27.095  1.00  0.00     0.083 C 
HETATM   11  F   UNL     1      79.184 181.146 -26.004  1.00  0.00    -0.209 F 
ENDROOT
BRANCH   7  12
HETATM   12  C   UNL     1      76.481 186.794 -26.382  1.00  0.00     0.004 C 
HETATM   13  C   UNL     1      75.652 186.623 -27.480  1.00  0.00     0.015 C 
HETATM   14  C   UNL     1      75.434 187.423 -28.573  1.00  0.00     0.037 C 
HETATM   15  C   UNL     1      76.092 188.525 -29.084  1.00  0.00     0.065 C 
HETATM   16  C   UNL     1      77.207 189.092 -28.476  1.00  0.00     0.036 C 
HETATM   17  C   UNL     1      77.616 188.877 -27.171  1.00  0.00     0.003 C 
HETATM   18  C   UNL     1      77.233 187.951 -26.224  1.00  0.00     0.012 C 
BRANCH  15  19
HETATM   19  O   UNL     1      75.635 189.103 -30.241  1.00  0.00    -0.361 OA
ATOM     20  HO  UNL     1      76.177 189.773 -30.643  1.00  0.00     0.217 HD
ENDBRANCH  15  19
ENDBRANCH   7  12
BRANCH   7  21
HETATM   21  O   UNL     1      75.985 185.900 -24.162  1.00  0.00    -0.361 OA
ATOM     22  HO  UNL     1      75.330 185.242 -23.962  1.00  0.00     0.213 HD
ENDBRANCH   7  21
BRANCH   6  23
HETATM   23  N   UNL     1      80.660 183.119 -24.950  1.00  0.00    -0.068 N 
ATOM     24  HN3 UNL     1      81.259 182.369 -25.296  1.00  0.00     0.275 HD
ATOM     25  HN2 UNL     1      81.368 183.845 -24.845  1.00  0.00     0.275 HD
ATOM     26  HN1 UNL     1      80.230 182.878 -24.057  1.00  0.00     0.275 HD
ENDBRANCH   6  23
BRANCH   8  27
HETATM   27  O   UNL     1      79.976 182.124 -27.879  1.00  0.00    -0.360 OA
ATOM     28  HO  UNL     1      80.712 181.554 -27.691  1.00  0.00     0.213 HD
ENDBRANCH   8  27
TORSDOF 5
ENDMDL
MODEL 2
REMARK VINA RESULT:      -7.2      3.767      6.429
REMARK  5 active torsions:
REMARK  status: ('A' for Active; 'I' for Inactive)
REMARK    1  A    between atoms: C_2  and  C_20 
REMARK    2  A    between atoms: O_4  and  C_22 
REMARK    3  A    between atoms: O_6  and  C_20 
REMARK    4  A    between atoms: C_14  and  N_16 
REMARK    5  A    between atoms: C_24  and  O_25 
ROOT
HETATM    1  C   UNL     1      75.748 187.943 -29.364  1.00  0.00     0.230 C 
HETATM    2  N   UNL     1      75.004 186.701 -29.484  1.00  0.00    -0.032 N 
ATOM      3  HN1 UNL     1      75.366 186.116 -30.238  1.00  0.00     0.281 HD
ATOM      4  HN2 UNL     1      74.065 186.858 -29.848  1.00  0.00     0.281 HD
HETATM    5  C   UNL     1      76.473 187.907 -28.033  1.00  0.00     0.029 C 
HETATM    6  C   UNL     1      76.747 188.429 -30.405  1.00  0.00     0.281 C 
HETATM    7  C   UNL     1      74.979 185.984 -28.208  1.00  0.00     0.253 C 
HETATM    8  C   UNL     1      77.937 188.943 -29.611  1.00  0.00     0.233 C 
HETATM    9  C   UNL     1      76.000 186.675 -27.294  1.00  0.00     0.081 C 
HETATM   10  C   UNL     1      77.948 188.110 -28.327  1.00  0.00     0.083 C 
HETATM   11  F   UNL     1      77.775 190.253 -29.250  1.00  0.00    -0.209 F 
ENDROOT
BRANCH   7  12
HETATM   12  C   UNL     1      75.356 184.524 -28.422  1.00  0.00     0.004 C 
HETATM   13  C   UNL     1      75.914 183.805 -27.376  1.00  0.00     0.015 C 
HETATM   14  C   UNL     1      76.454 182.545 -27.341  1.00  0.00     0.037 C 
HETATM   15  C   UNL     1      76.843 181.655 -28.324  1.00  0.00     0.065 C 
HETATM   16  C   UNL     1      76.699 181.916 -29.682  1.00  0.00     0.036 C 
HETATM   17  C   UNL     1      75.892 182.893 -30.239  1.00  0.00     0.003 C 
HETATM   18  C   UNL     1      75.224 183.964 -29.687  1.00  0.00     0.012 C 
BRANCH  15  19
HETATM   19  O   UNL     1      77.391 180.451 -27.962  1.00  0.00    -0.361 OA
ATOM     20  HO  UNL     1      77.324 179.732 -28.580  1.00  0.00     0.217 HD
ENDBRANCH  15  19
ENDBRANCH   7  12
BRANCH   7  21
HETATM   21  O   UNL     1      73.698 186.133 -27.626  1.00  0.00    -0.361 OA
ATOM     22  HO  UNL     1      73.504 187.034 -27.397  1.00  0.00     0.213 HD
ENDBRANCH   7  21
BRANCH   6  23
HETATM   23  N   UNL     1      76.156 189.471 -31.236  1.00  0.00    -0.068 N 
ATOM     24  HN3 UNL     1      76.836 190.190 -31.481  1.00  0.00     0.275 HD
ATOM     25  HN2 UNL     1      75.946 189.132 -32.175  1.00  0.00     0.275 HD
ATOM     26  HN1 UNL     1      75.331 189.865 -30.784  1.00  0.00     0.275 HD
ENDBRANCH   6  23
BRANCH   8  27
HETATM   27  O   UNL     1      79.124 188.811 -30.345  1.00  0.00    -0.360 OA
ATOM     28  HO  UNL     1      79.180 187.952 -30.748  1.00  0.00     0.213 HD
ENDBRANCH   8  27
TORSDOF 5
ENDMDL
MODEL 3
REMARK VINA RESULT:      -7.2      3.795      6.401
REMARK  5 active torsions:
REMARK  status: ('A' for Active; 'I' for Inactive)
REMARK    1  A    between atoms: C_2  and  C_20 
REMARK    2  A    between atoms: O_4  and  C_22 
REMARK    3  A    between atoms: O_6  and  C_20 
REMARK    4  A    between atoms: C_14  and  N_16 
REMARK    5  A    between atoms: C_24  and  O_25 
ROOT
HETATM    1  C   UNL     1      77.948 186.830 -30.685  1.00  0.00     0.230 C 
HETATM    2  N   UNL     1      77.778 185.725 -29.757  1.00  0.00    -0.032 N 
ATOM      3  HN1 UNL     1      78.082 185.974 -28.816  1.00  0.00     0.281 HD
ATOM      4  HN2 UNL     1      78.443 184.974 -29.941  1.00  0.00     0.281 HD
HETATM    5  C   UNL     1      76.564 187.271 -31.120  1.00  0.00     0.029 C 
HETATM    6  C   UNL     1      78.737 188.091 -30.356  1.00  0.00     0.281 C 
HETATM    7  C   UNL     1      76.396 185.242 -29.771  1.00  0.00     0.253 C 
HETATM    8  C   UNL     1      77.895 189.241 -30.886  1.00  0.00     0.233 C 
HETATM    9  C   UNL     1      75.575 186.280 -30.548  1.00  0.00     0.081 C 
HETATM   10  C   UNL     1      76.449 188.749 -30.796  1.00  0.00     0.083 C 
HETATM   11  F   UNL     1      78.161 189.496 -32.204  1.00  0.00    -0.209 F 
ENDROOT
BRANCH   7  12
HETATM   12  C   UNL     1      75.877 185.109 -28.345  1.00  0.00     0.004 C 
HETATM   13  C   UNL     1      76.769 185.186 -27.287  1.00  0.00     0.015 C 
HETATM   14  C   UNL     1      76.590 184.971 -25.944  1.00  0.00     0.037 C 
HETATM   15  C   UNL     1      75.571 184.398 -25.206  1.00  0.00     0.065 C 
HETATM   16  C   UNL     1      74.400 183.916 -25.779  1.00  0.00     0.036 C 
HETATM   17  C   UNL     1      73.937 184.210 -27.050  1.00  0.00     0.003 C 
HETATM   18  C   UNL     1      74.535 184.818 -28.132  1.00  0.00     0.012 C 
BRANCH  15  19
HETATM   19  O   UNL     1      75.702 184.299 -23.845  1.00  0.00    -0.361 OA
ATOM     20  HO  UNL     1      76.434 184.748 -23.438  1.00  0.00     0.217 HD
ENDBRANCH  15  19
ENDBRANCH   7  12
BRANCH   7  21
HETATM   21  O   UNL     1      76.346 184.021 -30.483  1.00  0.00    -0.361 OA
ATOM     22  HO  UNL     1      75.869 184.095 -31.301  1.00  0.00     0.213 HD
ENDBRANCH   7  21
BRANCH   6  23
HETATM   23  N   UNL     1      80.055 188.048 -30.978  1.00  0.00    -0.068 N 
ATOM     24  HN3 UNL     1      80.799 188.186 -30.295  1.00  0.00     0.275 HD
ATOM     25  HN2 UNL     1      80.299 187.106 -31.284  1.00  0.00     0.275 HD
ATOM     26  HN1 UNL     1      80.112 188.720 -31.744  1.00  0.00     0.275 HD
ENDBRANCH   6  23
BRANCH   8  27
HETATM   27  O   UNL     1      78.112 190.406 -30.137  1.00  0.00    -0.360 OA
ATOM     28  HO  UNL     1      77.647 190.369 -29.310  1.00  0.00     0.213 HD
ENDBRANCH   8  27
TORSDOF 5
ENDMDL
MODEL 4
REMARK VINA RESULT:      -7.1      3.549      4.353
REMARK  5 active torsions:
REMARK  status: ('A' for Active; 'I' for Inactive)
REMARK    1  A    between atoms: C_2  and  C_20 
REMARK    2  A    between atoms: O_4  and  C_22 
REMARK    3  A    between atoms: O_6  and  C_20 
REMARK    4  A    between atoms: C_14  and  N_16 
REMARK    5  A    between atoms: C_24  and  O_25 
ROOT
HETATM    1  C   UNL     1      75.327 183.818 -28.986  1.00  0.00     0.230 C 
HETATM    2  N   UNL     1      76.067 184.579 -27.994  1.00  0.00    -0.032 N 
ATOM      3  HN1 UNL     1      76.862 185.065 -28.408  1.00  0.00     0.281 HD
ATOM      4  HN2 UNL     1      76.575 183.970 -27.353  1.00  0.00     0.281 HD
HETATM    5  C   UNL     1      73.960 184.460 -29.120  1.00  0.00     0.029 C 
HETATM    6  C   UNL     1      75.838 183.554 -30.396  1.00  0.00     0.281 C 
HETATM    7  C   UNL     1      75.181 185.501 -27.279  1.00  0.00     0.253 C 
HETATM    8  C   UNL     1      74.641 183.776 -31.306  1.00  0.00     0.233 C 
HETATM    9  C   UNL     1      73.855 185.525 -28.052  1.00  0.00     0.081 C 
HETATM   10  C   UNL     1      73.781 184.816 -30.584  1.00  0.00     0.083 C 
HETATM   11  F   UNL     1      73.888 182.640 -31.435  1.00  0.00    -0.209 F 
ENDROOT
BRANCH   7  12
HETATM   12  C   UNL     1      75.801 186.892 -27.237  1.00  0.00     0.004 C 
HETATM   13  C   UNL     1      75.803 187.670 -28.385  1.00  0.00     0.015 C 
HETATM   14  C   UNL     1      76.400 188.875 -28.651  1.00  0.00     0.037 C 
HETATM   15  C   UNL     1      77.364 189.618 -27.995  1.00  0.00     0.065 C 
HETATM   16  C   UNL     1      77.933 189.225 -26.789  1.00  0.00     0.036 C 
HETATM   17  C   UNL     1      77.428 188.265 -25.929  1.00  0.00     0.003 C 
HETATM   18  C   UNL     1      76.435 187.321 -26.079  1.00  0.00     0.012 C 
BRANCH  15  19
HETATM   19  O   UNL     1      77.786 190.803 -28.542  1.00  0.00    -0.361 OA
ATOM     20  HO  UNL     1      78.467 190.765 -29.203  1.00  0.00     0.217 HD
ENDBRANCH  15  19
ENDBRANCH   7  12
BRANCH   7  21
HETATM   21  O   UNL     1      74.927 184.981 -25.988  1.00  0.00    -0.361 OA
ATOM     22  HO  UNL     1      75.163 185.590 -25.297  1.00  0.00     0.213 HD
ENDBRANCH   7  21
BRANCH   6  23
HETATM   23  N   UNL     1      76.363 182.199 -30.506  1.00  0.00    -0.068 N 
ATOM     24  HN3 UNL     1      77.312 182.130 -30.140  1.00  0.00     0.275 HD
ATOM     25  HN2 UNL     1      75.902 181.560 -29.858  1.00  0.00     0.275 HD
ATOM     26  HN1 UNL     1      76.303 181.868 -31.469  1.00  0.00     0.275 HD
ENDBRANCH   6  23
BRANCH   8  27
HETATM   27  O   UNL     1      75.049 184.206 -32.575  1.00  0.00    -0.360 OA
ATOM     28  HO  UNL     1      75.965 184.459 -32.569  1.00  0.00     0.213 HD
ENDBRANCH   8  27
TORSDOF 5
ENDMDL
MODEL 5
REMARK VINA RESULT:      -7.1      1.899      2.309
REMARK  5 active torsions:
REMARK  status: ('A' for Active; 'I' for Inactive)
REMARK    1  A    between atoms: C_2  and  C_20 
REMARK    2  A    between atoms: O_4  and  C_22 
REMARK    3  A    between atoms: O_6  and  C_20 
REMARK    4  A    between atoms: C_14  and  N_16 
REMARK    5  A    between atoms: C_24  and  O_25 
ROOT
HETATM    1  C   UNL     1      77.621 183.415 -26.522  1.00  0.00     0.230 C 
HETATM    2  N   UNL     1      78.166 184.712 -26.161  1.00  0.00    -0.032 N 
ATOM      3  HN1 UNL     1      78.927 184.988 -26.782  1.00  0.00     0.281 HD
ATOM      4  HN2 UNL     1      78.688 184.671 -25.286  1.00  0.00     0.281 HD
HETATM    5  C   UNL     1      76.201 183.639 -27.002  1.00  0.00     0.029 C 
HETATM    6  C   UNL     1      78.286 182.470 -27.515  1.00  0.00     0.281 C 
HETATM    7  C   UNL     1      77.109 185.725 -26.116  1.00  0.00     0.253 C 
HETATM    8  C   UNL     1      77.156 181.938 -28.381  1.00  0.00     0.233 C 
HETATM    9  C   UNL     1      75.866 185.093 -26.755  1.00  0.00     0.081 C 
HETATM   10  C   UNL     1      76.109 183.054 -28.399  1.00  0.00     0.083 C 
HETATM   11  F   UNL     1      76.569 180.834 -27.823  1.00  0.00    -0.209 F 
ENDROOT
BRANCH   7  12
HETATM   12  C   UNL     1      77.540 186.962 -26.894  1.00  0.00     0.004 C 
HETATM   13  C   UNL     1      77.406 188.213 -26.311  1.00  0.00     0.015 C 
HETATM   14  C   UNL     1      77.588 189.469 -26.830  1.00  0.00     0.037 C 
HETATM   15  C   UNL     1      77.735 189.947 -28.118  1.00  0.00     0.065 C 
HETATM   16  C   UNL     1      77.757 189.121 -29.235  1.00  0.00     0.036 C 
HETATM   17  C   UNL     1      77.961 187.752 -29.228  1.00  0.00     0.003 C 
HETATM   18  C   UNL     1      77.971 186.825 -28.207  1.00  0.00     0.012 C 
BRANCH  15  19
HETATM   19  O   UNL     1      77.874 191.297 -28.322  1.00  0.00    -0.361 OA
ATOM     20  HO  UNL     1      78.415 191.782 -27.709  1.00  0.00     0.217 HD
ENDBRANCH  15  19
ENDBRANCH   7  12
BRANCH   7  21
HETATM   21  O   UNL     1      76.810 186.012 -24.763  1.00  0.00    -0.361 OA
ATOM     22  HO  UNL     1      77.590 186.141 -24.237  1.00  0.00     0.213 HD
ENDBRANCH   7  21
BRANCH   6  23
HETATM   23  N   UNL     1      78.987 181.401 -26.815  1.00  0.00    -0.068 N 
ATOM     24  HN3 UNL     1      78.340 180.706 -26.441  1.00  0.00     0.275 HD
ATOM     25  HN2 UNL     1      79.501 180.800 -27.460  1.00  0.00     0.275 HD
ATOM     26  HN1 UNL     1      79.594 181.784 -26.090  1.00  0.00     0.275 HD
ENDBRANCH   6  23
BRANCH   8  27
HETATM   27  O   UNL     1      77.618 181.616 -29.664  1.00  0.00    -0.360 OA
ATOM     28  HO  UNL     1      77.267 182.215 -30.312  1.00  0.00     0.213 HD
ENDBRANCH   8  27
TORSDOF 5
ENDMDL
MODEL 6
REMARK VINA RESULT:      -7.0      2.199      2.704
REMARK  5 active torsions:
REMARK  status: ('A' for Active; 'I' for Inactive)
REMARK    1  A    between atoms: C_2  and  C_20 
REMARK    2  A    between atoms: O_4  and  C_22 
REMARK    3  A    between atoms: O_6  and  C_20 
REMARK    4  A    between atoms: C_14  and  N_16 
REMARK    5  A    between atoms: C_24  and  O_25 
ROOT
HETATM    1  C   UNL     1      75.989 183.772 -27.312  1.00  0.00     0.230 C 
HETATM    2  N   UNL     1      75.724 185.180 -27.074  1.00  0.00    -0.032 N 
ATOM      3  HN1 UNL     1      76.583 185.700 -26.892  1.00  0.00     0.281 HD
ATOM      4  HN2 UNL     1      75.261 185.331 -26.178  1.00  0.00     0.281 HD
HETATM    5  C   UNL     1      75.631 183.483 -28.756  1.00  0.00     0.029 C 
HETATM    6  C   UNL     1      77.335 183.113 -27.043  1.00  0.00     0.281 C 
HETATM    7  C   UNL     1      74.964 185.761 -28.183  1.00  0.00     0.253 C 
HETATM    8  C   UNL     1      77.588 182.213 -28.242  1.00  0.00     0.233 C 
HETATM    9  C   UNL     1      74.986 184.730 -29.319  1.00  0.00     0.081 C 
HETATM   10  C   UNL     1      76.867 182.893 -29.408  1.00  0.00     0.083 C 
HETATM   11  F   UNL     1      77.022 180.978 -28.074  1.00  0.00    -0.209 F 
ENDROOT
BRANCH   7  12
HETATM   12  C   UNL     1      75.611 187.065 -28.632  1.00  0.00     0.004 C 
HETATM   13  C   UNL     1      75.695 187.352 -29.986  1.00  0.00     0.015 C 
HETATM   14  C   UNL     1      76.332 188.368 -30.650  1.00  0.00     0.037 C 
HETATM   15  C   UNL     1      77.275 189.303 -30.267  1.00  0.00     0.065 C 
HETATM   16  C   UNL     1      77.767 189.395 -28.970  1.00  0.00     0.036 C 
HETATM   17  C   UNL     1      77.194 188.831 -27.843  1.00  0.00     0.003 C 
HETATM   18  C   UNL     1      76.191 187.900 -27.685  1.00  0.00     0.012 C 
BRANCH  15  19
HETATM   19  O   UNL     1      77.753 190.194 -31.195  1.00  0.00    -0.361 OA
ATOM     20  HO  UNL     1      77.117 190.676 -31.711  1.00  0.00     0.217 HD
ENDBRANCH  15  19
ENDBRANCH   7  12
BRANCH   7  21
HETATM   21  O   UNL     1      73.621 185.935 -27.774  1.00  0.00    -0.361 OA
ATOM     22  HO  UNL     1      73.257 186.765 -28.061  1.00  0.00     0.213 HD
ENDBRANCH   7  21
BRANCH   6  23
HETATM   23  N   UNL     1      77.298 182.360 -25.795  1.00  0.00    -0.068 N 
ATOM     24  HN3 UNL     1      76.841 182.886 -25.050  1.00  0.00     0.275 HD
ATOM     25  HN2 UNL     1      76.651 181.574 -25.847  1.00  0.00     0.275 HD
ATOM     26  HN1 UNL     1      78.236 182.061 -25.528  1.00  0.00     0.275 HD
ENDBRANCH   6  23
BRANCH   8  27
HETATM   27  O   UNL     1      78.961 182.063 -28.475  1.00  0.00    -0.360 OA
ATOM     28  HO  UNL     1      79.469 182.514 -27.811  1.00  0.00     0.213 HD
ENDBRANCH   8  27
TORSDOF 5
ENDMDL
MODEL 7
REMARK VINA RESULT:      -7.0      2.381      3.252
REMARK  5 active torsions:
REMARK  status: ('A' for Active; 'I' for Inactive)
REMARK    1  A    between atoms: C_2  and  C_20 
REMARK    2  A    between atoms: O_4  and  C_22 
REMARK    3  A    between atoms: O_6  and  C_20 
REMARK    4  A    between atoms: C_14  and  N_16 
REMARK    5  A    between atoms: C_24  and  O_25 
ROOT
HETATM    1  C   UNL     1      75.643 184.319 -26.459  1.00  0.00     0.230 C 
HETATM    2  N   UNL     1      74.923 185.298 -27.255  1.00  0.00    -0.032 N 
ATOM      3  HN1 UNL     1      75.202 186.251 -27.023  1.00  0.00     0.281 HD
ATOM      4  HN2 UNL     1      73.941 185.354 -26.985  1.00  0.00     0.281 HD
HETATM    5  C   UNL     1      76.531 183.533 -27.404  1.00  0.00     0.029 C 
HETATM    6  C   UNL     1      76.490 184.681 -25.246  1.00  0.00     0.281 C 
HETATM    7  C   UNL     1      75.078 185.020 -28.685  1.00  0.00     0.253 C 
HETATM    8  C   UNL     1      77.757 183.852 -25.378  1.00  0.00     0.233 C 
HETATM    9  C   UNL     1      76.188 183.968 -28.811  1.00  0.00     0.081 C 
HETATM   10  C   UNL     1      77.951 183.660 -26.884  1.00  0.00     0.083 C 
HETATM   11  F   UNL     1      77.607 182.610 -24.822  1.00  0.00    -0.209 F 
ENDROOT
BRANCH   7  12
HETATM   12  C   UNL     1      75.463 186.295 -29.424  1.00  0.00     0.004 C 
HETATM   13  C   UNL     1      75.925 186.211 -30.729  1.00  0.00     0.015 C 
HETATM   14  C   UNL     1      76.452 187.168 -31.557  1.00  0.00     0.037 C 
HETATM   15  C   UNL     1      76.918 188.451 -31.343  1.00  0.00     0.065 C 
HETATM   16  C   UNL     1      76.893 189.069 -30.097  1.00  0.00     0.036 C 
HETATM   17  C   UNL     1      76.143 188.664 -29.007  1.00  0.00     0.003 C 
HETATM   18  C   UNL     1      75.436 187.509 -28.749  1.00  0.00     0.012 C 
BRANCH  15  19
HETATM   19  O   UNL     1      77.426 189.166 -32.398  1.00  0.00    -0.361 OA
ATOM     20  HO  UNL     1      77.711 188.680 -33.163  1.00  0.00     0.217 HD
ENDBRANCH  15  19
ENDBRANCH   7  12
BRANCH   7  21
HETATM   21  O   UNL     1      73.877 184.453 -29.172  1.00  0.00    -0.361 OA
ATOM     22  HO  UNL     1      73.104 184.848 -28.786  1.00  0.00     0.213 HD
ENDBRANCH   7  21
BRANCH   6  23
HETATM   23  N   UNL     1      75.771 184.386 -24.012  1.00  0.00    -0.068 N 
ATOM     24  HN3 UNL     1      74.787 184.181 -24.187  1.00  0.00     0.275 HD
ATOM     25  HN2 UNL     1      76.047 183.486 -23.619  1.00  0.00     0.275 HD
ATOM     26  HN1 UNL     1      75.887 185.144 -23.339  1.00  0.00     0.275 HD
ENDBRANCH   6  23
BRANCH   8  27
HETATM   27  O   UNL     1      78.844 184.499 -24.775  1.00  0.00    -0.360 OA
ATOM     28  HO  UNL     1      79.620 184.436 -25.320  1.00  0.00     0.213 HD
ENDBRANCH   8  27
TORSDOF 5
ENDMDL
MODEL 8
REMARK VINA RESULT:      -7.0      2.155      2.904
REMARK  5 active torsions:
REMARK  status: ('A' for Active; 'I' for Inactive)
REMARK    1  A    between atoms: C_2  and  C_20 
REMARK    2  A    between atoms: O_4  and  C_22 
REMARK    3  A    between atoms: O_6  and  C_20 
REMARK    4  A    between atoms: C_14  and  N_16 
REMARK    5  A    between atoms: C_24  and  O_25 
ROOT
HETATM    1  C   UNL     1      78.802 182.882 -24.498  1.00  0.00     0.230 C 
HETATM    2  N   UNL     1      77.576 183.599 -24.800  1.00  0.00    -0.032 N 
ATOM      3  HN1 UNL     1      77.668 184.598 -24.617  1.00  0.00     0.281 HD
ATOM      4  HN2 UNL     1      76.839 183.386 -24.127  1.00  0.00     0.281 HD
HETATM    5  C   UNL     1      79.349 182.350 -25.808  1.00  0.00     0.029 C 
HETATM    6  C   UNL     1      79.971 183.497 -23.740  1.00  0.00     0.281 C 
HETATM    7  C   UNL     1      77.146 183.338 -26.176  1.00  0.00     0.253 C 
HETATM    8  C   UNL     1      81.216 183.051 -24.491  1.00  0.00     0.233 C 
HETATM    9  C   UNL     1      78.317 182.634 -26.876  1.00  0.00     0.081 C 
HETATM   10  C   UNL     1      80.764 182.882 -25.943  1.00  0.00     0.083 C 
HETATM   11  F   UNL     1      81.658 181.832 -24.054  1.00  0.00    -0.209 F 
ENDROOT
BRANCH   7  12
HETATM   12  C   UNL     1      76.816 184.650 -26.876  1.00  0.00     0.004 C 
HETATM   13  C   UNL     1      77.792 185.629 -26.981  1.00  0.00     0.015 C 
HETATM   14  C   UNL     1      77.721 186.922 -27.434  1.00  0.00     0.037 C 
HETATM   15  C   UNL     1      76.666 187.767 -27.718  1.00  0.00     0.065 C 
HETATM   16  C   UNL     1      75.335 187.381 -27.607  1.00  0.00     0.036 C 
HETATM   17  C   UNL     1      74.871 186.080 -27.526  1.00  0.00     0.003 C 
HETATM   18  C   UNL     1      75.518 184.881 -27.313  1.00  0.00     0.012 C 
BRANCH  15  19
HETATM   19  O   UNL     1      76.925 189.048 -28.136  1.00  0.00    -0.361 OA
ATOM     20  HO  UNL     1      76.562 189.761 -27.624  1.00  0.00     0.217 HD
ENDBRANCH  15  19
ENDBRANCH   7  12
BRANCH   7  21
HETATM   21  O   UNL     1      76.049 182.446 -26.150  1.00  0.00    -0.361 OA
ATOM     22  HO  UNL     1      75.440 182.596 -26.863  1.00  0.00     0.213 HD
ENDBRANCH   7  21
BRANCH   6  23
HETATM   23  N   UNL     1      79.979 183.046 -22.354  1.00  0.00    -0.068 N 
ATOM     24  HN3 UNL     1      80.123 183.820 -21.705  1.00  0.00     0.275 HD
ATOM     25  HN2 UNL     1      79.052 182.756 -22.045  1.00  0.00     0.275 HD
ATOM     26  HN1 UNL     1      80.670 182.307 -22.222  1.00  0.00     0.275 HD
ENDBRANCH   6  23
BRANCH   8  27
HETATM   27  O   UNL     1      82.246 183.991 -24.356  1.00  0.00    -0.360 OA
ATOM     28  HO  UNL     1      82.926 183.668 -23.776  1.00  0.00     0.213 HD
ENDBRANCH   8  27
TORSDOF 5
ENDMDL
MODEL 9
REMARK VINA RESULT:      -6.9      2.983      3.986
REMARK  5 active torsions:
REMARK  status: ('A' for Active; 'I' for Inactive)
REMARK    1  A    between atoms: C_2  and  C_20 
REMARK    2  A    between atoms: O_4  and  C_22 
REMARK    3  A    between atoms: O_6  and  C_20 
REMARK    4  A    between atoms: C_14  and  N_16 
REMARK    5  A    between atoms: C_24  and  O_25 
ROOT
HETATM    1  C   UNL     1      75.557 185.759 -26.384  1.00  0.00     0.230 C 
HETATM    2  N   UNL     1      76.439 186.870 -26.699  1.00  0.00    -0.032 N 
ATOM      3  HN1 UNL     1      77.416 186.637 -26.522  1.00  0.00     0.281 HD
ATOM      4  HN2 UNL     1      76.338 187.633 -26.030  1.00  0.00     0.281 HD
HETATM    5  C   UNL     1      74.943 185.286 -27.687  1.00  0.00     0.029 C 
HETATM    6  C   UNL     1      76.006 184.519 -25.624  1.00  0.00     0.281 C 
HETATM    7  C   UNL     1      76.231 187.325 -28.075  1.00  0.00     0.253 C 
HETATM    8  C   UNL     1      75.382 183.346 -26.364  1.00  0.00     0.233 C 
HETATM    9  C   UNL     1      75.363 186.263 -28.764  1.00  0.00     0.081 C 
HETATM   10  C   UNL     1      75.267 183.810 -27.818  1.00  0.00     0.083 C 
HETATM   11  F   UNL     1      74.115 183.083 -25.916  1.00  0.00    -0.209 F 
ENDROOT
BRANCH   7  12
HETATM   12  C   UNL     1      77.571 187.462 -28.787  1.00  0.00     0.004 C 
HETATM   13  C   UNL     1      77.720 188.420 -29.778  1.00  0.00     0.015 C 
HETATM   14  C   UNL     1      78.753 188.660 -30.647  1.00  0.00     0.037 C 
HETATM   15  C   UNL     1      79.874 187.935 -31.005  1.00  0.00     0.065 C 
HETATM   16  C   UNL     1      80.190 186.702 -30.446  1.00  0.00     0.036 C 
HETATM   17  C   UNL     1      79.661 186.182 -29.278  1.00  0.00     0.003 C 
HETATM   18  C   UNL     1      78.591 186.566 -28.497  1.00  0.00     0.012 C 
BRANCH  15  19
HETATM   19  O   UNL     1      80.729 188.443 -31.950  1.00  0.00    -0.361 OA
ATOM     20  HO  UNL     1      81.662 188.355 -31.793  1.00  0.00     0.217 HD
ENDBRANCH  15  19
ENDBRANCH   7  12
BRANCH   7  21
HETATM   21  O   UNL     1      75.503 188.538 -28.050  1.00  0.00    -0.361 OA
ATOM     22  HO  UNL     1      74.866 188.566 -27.346  1.00  0.00     0.213 HD
ENDBRANCH   7  21
BRANCH   6  23
HETATM   23  N   UNL     1      75.569 184.581 -24.235  1.00  0.00    -0.068 N 
ATOM     24  HN3 UNL     1      76.336 184.822 -23.608  1.00  0.00     0.275 HD
ATOM     25  HN2 UNL     1      74.970 185.389 -24.063  1.00  0.00     0.275 HD
ATOM     26  HN1 UNL     1      75.115 183.709 -23.962  1.00  0.00     0.275 HD
ENDBRANCH   6  23
BRANCH   8  27
HETATM   27  O   UNL     1      76.167 182.194 -26.229  1.00  0.00    -0.360 OA
ATOM     28  HO  UNL     1      76.812 182.301 -25.540  1.00  0.00     0.213 HD
ENDBRANCH   8  27
TORSDOF 5
ENDMDL
