MODEL 1
REMARK VINA RESULT:      -9.1      0.000      0.000
REMARK  6 active torsions:
REMARK  status: ('A' for Active; 'I' for Inactive)
REMARK    1  A    between atoms: C_1  and  O_21 
REMARK    2  A    between atoms: C_4  and  C_11 
REMARK    3  A    between atoms: O_6  and  C_24 
REMARK    4  A    between atoms: C_11  and  O_19 
REMARK    5  A    between atoms: C_12  and  C_24 
REMARK    6  A    between atoms: C_17  and  C_18 
ROOT
HETATM    1  C   UNL     1      11.987  38.583   7.185  1.00  0.00     0.164 C 
HETATM    2  C   UNL     1      11.286  40.901   6.962  1.00  0.00     0.046 C 
HETATM    3  C   UNL     1      12.578  40.898   7.767  1.00  0.00     0.014 C 
HETATM    4  C   UNL     1      11.123  39.520   6.332  1.00  0.00     0.111 C 
HETATM    5  C   UNL     1      13.074  39.466   7.818  1.00  0.00     0.056 C 
ENDROOT
BRANCH   4   6
HETATM    6  C   UNL     1       9.675  39.278   5.966  1.00  0.00    -0.021 C 
HETATM    7  C   UNL     1       8.556  39.560   6.755  1.00  0.00     0.011 C 
HETATM    8  C   UNL     1       7.302  39.047   6.400  1.00  0.00     0.019 C 
HETATM    9  C   UNL     1       7.156  38.243   5.266  1.00  0.00     0.040 C 
HETATM   10  C   UNL     1       8.197  38.190   4.346  1.00  0.00     0.019 C 
HETATM   11  C   UNL     1       9.423  38.759   4.683  1.00  0.00     0.011 C 
BRANCH   9  12
HETATM   12  C   UNL     1       5.888  37.443   5.045  1.00  0.00     0.209 C 
HETATM   13  O   UNL     1       4.865  37.721   5.719  1.00  0.00    -0.644 OA
HETATM   14  O   UNL     1       5.881  36.596   4.131  1.00  0.00    -0.644 OA
ENDBRANCH   9  12
ENDBRANCH   4   6
BRANCH   4  15
HETATM   15  O   UNL     1      11.789  39.511   5.066  1.00  0.00    -0.382 OA
ATOM     16  HO  UNL     1      12.626  39.915   5.261  1.00  0.00     0.211 HD
ENDBRANCH   4  15
BRANCH   1  17
HETATM   17  O   UNL     1      11.250  37.842   8.135  1.00  0.00    -0.392 OA
ATOM     18  HO  UNL     1      11.134  36.930   7.898  1.00  0.00     0.210 HD
ENDBRANCH   1  17
BRANCH   5  19
HETATM   19  C   UNL     1      14.478  39.270   7.217  1.00  0.00     0.088 C 
HETATM   20  C   UNL     1      14.922  37.846   7.551  1.00  0.00     0.125 C 
HETATM   21  C   UNL     1      16.395  37.654   7.286  1.00  0.00     0.152 C 
HETATM   22  O   UNL     1      16.799  36.846   6.422  1.00  0.00    -0.293 OA
HETATM   23  C   UNL     1      17.253  38.676   7.808  1.00  0.00     0.050 C 
HETATM   24  C   UNL     1      16.752  39.948   8.025  1.00  0.00     0.003 C 
HETATM   25  C   UNL     1      15.414  40.298   7.778  1.00  0.00     0.012 C 
BRANCH  19  26
HETATM   26  O   UNL     1      14.449  39.391   5.799  1.00  0.00    -0.385 OA
ATOM     27  HO  UNL     1      14.890  40.201   5.570  1.00  0.00     0.211 HD
ENDBRANCH  19  26
ENDBRANCH   5  19
TORSDOF 6
ENDMDL
MODEL 2
REMARK VINA RESULT:      -9.0      2.090      7.987
REMARK  6 active torsions:
REMARK  status: ('A' for Active; 'I' for Inactive)
REMARK    1  A    between atoms: C_1  and  O_21 
REMARK    2  A    between atoms: C_4  and  C_11 
REMARK    3  A    between atoms: O_6  and  C_24 
REMARK    4  A    between atoms: C_11  and  O_19 
REMARK    5  A    between atoms: C_12  and  C_24 
REMARK    6  A    between atoms: C_17  and  C_18 
ROOT
HETATM    1  C   UNL     1       9.145  39.942   3.877  1.00  0.00     0.164 C 
HETATM    2  C   UNL     1       8.386  39.280   6.091  1.00  0.00     0.046 C 
HETATM    3  C   UNL     1       7.146  39.597   5.266  1.00  0.00     0.014 C 
HETATM    4  C   UNL     1       9.570  39.171   5.134  1.00  0.00     0.111 C 
HETATM    5  C   UNL     1       7.608  39.907   3.857  1.00  0.00     0.056 C 
ENDROOT
BRANCH   4   6
HETATM    6  C   UNL     1      10.870  39.371   5.881  1.00  0.00    -0.021 C 
HETATM    7  C   UNL     1      11.094  40.251   6.945  1.00  0.00     0.011 C 
HETATM    8  C   UNL     1      12.402  40.521   7.366  1.00  0.00     0.019 C 
HETATM    9  C   UNL     1      13.494  39.925   6.727  1.00  0.00     0.040 C 
HETATM   10  C   UNL     1      13.264  38.859   5.865  1.00  0.00     0.019 C 
HETATM   11  C   UNL     1      11.953  38.558   5.500  1.00  0.00     0.011 C 
BRANCH   9  12
HETATM   12  C   UNL     1      14.901  40.436   6.967  1.00  0.00     0.209 C 
HETATM   13  O   UNL     1      15.823  39.609   7.174  1.00  0.00    -0.644 OA
HETATM   14  O   UNL     1      15.107  41.659   6.856  1.00  0.00    -0.644 OA
ENDBRANCH   9  12
ENDBRANCH   4   6
BRANCH   4  15
HETATM   15  O   UNL     1       9.662  37.821   4.669  1.00  0.00    -0.382 OA
ATOM     16  HO  UNL     1       8.846  37.435   4.966  1.00  0.00     0.211 HD
ENDBRANCH   4  15
BRANCH   1  17
HETATM   17  O   UNL     1       9.673  41.250   3.811  1.00  0.00    -0.392 OA
ATOM     18  HO  UNL     1       9.153  41.843   3.281  1.00  0.00     0.210 HD
ENDBRANCH   1  17
BRANCH   5  19
HETATM   19  C   UNL     1       7.011  38.978   2.785  1.00  0.00     0.088 C 
HETATM   20  C   UNL     1       6.260  37.864   3.514  1.00  0.00     0.125 C 
HETATM   21  C   UNL     1       5.907  36.735   2.577  1.00  0.00     0.152 C 
HETATM   22  O   UNL     1       4.717  36.442   2.333  1.00  0.00    -0.293 OA
HETATM   23  C   UNL     1       6.974  36.274   1.738  1.00  0.00     0.050 C 
HETATM   24  C   UNL     1       8.019  37.127   1.426  1.00  0.00     0.003 C 
HETATM   25  C   UNL     1       8.108  38.441   1.915  1.00  0.00     0.012 C 
BRANCH  19  26
HETATM   26  O   UNL     1       6.070  39.672   1.972  1.00  0.00    -0.385 OA
ATOM     27  HO  UNL     1       6.235  40.602   2.071  1.00  0.00     0.211 HD
ENDBRANCH  19  26
ENDBRANCH   5  19
TORSDOF 6
ENDMDL
MODEL 3
REMARK VINA RESULT:      -9.0      1.697      2.226
REMARK  6 active torsions:
REMARK  status: ('A' for Active; 'I' for Inactive)
REMARK    1  A    between atoms: C_1  and  O_21 
REMARK    2  A    between atoms: C_4  and  C_11 
REMARK    3  A    between atoms: O_6  and  C_24 
REMARK    4  A    between atoms: C_11  and  O_19 
REMARK    5  A    between atoms: C_12  and  C_24 
REMARK    6  A    between atoms: C_17  and  C_18 
ROOT
HETATM    1  C   UNL     1      12.640  40.026   7.321  1.00  0.00     0.164 C 
HETATM    2  C   UNL     1      12.482  39.252   5.021  1.00  0.00     0.046 C 
HETATM    3  C   UNL     1      13.950  39.549   5.296  1.00  0.00     0.014 C 
HETATM    4  C   UNL     1      11.750  39.227   6.360  1.00  0.00     0.111 C 
HETATM    5  C   UNL     1      14.067  39.930   6.758  1.00  0.00     0.056 C 
ENDROOT
BRANCH   4   6
HETATM    6  C   UNL     1      10.268  39.451   6.152  1.00  0.00    -0.021 C 
HETATM    7  C   UNL     1       9.267  39.363   7.124  1.00  0.00     0.011 C 
HETATM    8  C   UNL     1       7.920  39.338   6.741  1.00  0.00     0.019 C 
HETATM    9  C   UNL     1       7.563  39.391   5.390  1.00  0.00     0.040 C 
HETATM   10  C   UNL     1       8.528  39.749   4.457  1.00  0.00     0.019 C 
HETATM   11  C   UNL     1       9.859  39.832   4.862  1.00  0.00     0.011 C 
BRANCH   9  12
HETATM   12  C   UNL     1       6.149  39.061   4.953  1.00  0.00     0.209 C 
HETATM   13  O   UNL     1       5.831  39.215   3.748  1.00  0.00    -0.644 OA
HETATM   14  O   UNL     1       5.379  38.558   5.793  1.00  0.00    -0.644 OA
ENDBRANCH   9  12
ENDBRANCH   4   6
BRANCH   4  15
HETATM   15  O   UNL     1      11.810  37.900   6.892  1.00  0.00    -0.382 OA
ATOM     16  HO  UNL     1      12.603  37.914   7.415  1.00  0.00     0.211 HD
ENDBRANCH   4  15
BRANCH   1  17
HETATM   17  O   UNL     1      12.207  41.356   7.516  1.00  0.00    -0.392 OA
ATOM     18  HO  UNL     1      12.608  41.977   6.919  1.00  0.00     0.210 HD
ENDBRANCH   1  17
BRANCH   5  19
HETATM   19  C   UNL     1      15.006  39.018   7.569  1.00  0.00     0.088 C 
HETATM   20  C   UNL     1      15.988  39.921   8.313  1.00  0.00     0.125 C 
HETATM   21  C   UNL     1      17.139  39.129   8.882  1.00  0.00     0.152 C 
HETATM   22  O   UNL     1      17.331  39.057  10.115  1.00  0.00    -0.293 OA
HETATM   23  C   UNL     1      17.759  38.206   7.978  1.00  0.00     0.050 C 
HETATM   24  C   UNL     1      17.035  37.700   6.911  1.00  0.00     0.003 C 
HETATM   25  C   UNL     1      15.705  38.067   6.644  1.00  0.00     0.012 C 
BRANCH  19  26
HETATM   26  O   UNL     1      14.281  38.273   8.543  1.00  0.00    -0.385 OA
ATOM     27  HO  UNL     1      14.914  37.846   9.108  1.00  0.00     0.211 HD
ENDBRANCH  19  26
ENDBRANCH   5  19
TORSDOF 6
ENDMDL
MODEL 4
REMARK VINA RESULT:      -9.0      1.709      2.925
REMARK  6 active torsions:
REMARK  status: ('A' for Active; 'I' for Inactive)
REMARK    1  A    between atoms: C_1  and  O_21 
REMARK    2  A    between atoms: C_4  and  C_11 
REMARK    3  A    between atoms: O_6  and  C_24 
REMARK    4  A    between atoms: C_11  and  O_19 
REMARK    5  A    between atoms: C_12  and  C_24 
REMARK    6  A    between atoms: C_17  and  C_18 
ROOT
HETATM    1  C   UNL     1      11.184  38.947   6.051  1.00  0.00     0.164 C 
HETATM    2  C   UNL     1      10.685  36.575   5.845  1.00  0.00     0.046 C 
HETATM    3  C   UNL     1      12.193  36.705   6.011  1.00  0.00     0.014 C 
HETATM    4  C   UNL     1      10.056  37.918   6.207  1.00  0.00     0.111 C 
HETATM    5  C   UNL     1      12.496  38.171   6.246  1.00  0.00     0.056 C 
ENDROOT
BRANCH   4   6
HETATM    6  C   UNL     1       8.678  38.034   5.594  1.00  0.00    -0.021 C 
HETATM    7  C   UNL     1       7.593  38.749   6.111  1.00  0.00     0.011 C 
HETATM    8  C   UNL     1       6.312  38.556   5.579  1.00  0.00     0.019 C 
HETATM    9  C   UNL     1       6.101  37.647   4.539  1.00  0.00     0.040 C 
HETATM   10  C   UNL     1       7.203  37.149   3.853  1.00  0.00     0.019 C 
HETATM   11  C   UNL     1       8.478  37.398   4.356  1.00  0.00     0.011 C 
BRANCH   9  12
HETATM   12  C   UNL     1       4.697  37.211   4.167  1.00  0.00     0.209 C 
HETATM   13  O   UNL     1       4.419  37.012   2.959  1.00  0.00    -0.644 OA
HETATM   14  O   UNL     1       3.895  36.974   5.090  1.00  0.00    -0.644 OA
ENDBRANCH   9  12
ENDBRANCH   4   6
BRANCH   4  15
HETATM   15  O   UNL     1       9.794  37.937   7.614  1.00  0.00    -0.382 OA
ATOM     16  HO  UNL     1       8.849  38.032   7.654  1.00  0.00     0.211 HD
ENDBRANCH   4  15
BRANCH   1  17
HETATM   17  O   UNL     1      11.134  39.658   4.833  1.00  0.00    -0.392 OA
ATOM     18  HO  UNL     1      10.501  40.367   4.833  1.00  0.00     0.210 HD
ENDBRANCH   1  17
BRANCH   5  19
HETATM   19  C   UNL     1      13.206  38.456   7.582  1.00  0.00     0.088 C 
HETATM   20  C   UNL     1      12.953  39.923   7.930  1.00  0.00     0.125 C 
HETATM   21  C   UNL     1      13.857  40.386   9.046  1.00  0.00     0.152 C 
HETATM   22  O   UNL     1      13.392  40.756  10.146  1.00  0.00    -0.293 OA
HETATM   23  C   UNL     1      15.241  40.047   8.899  1.00  0.00     0.050 C 
HETATM   24  C   UNL     1      15.602  38.954   8.129  1.00  0.00     0.003 C 
HETATM   25  C   UNL     1      14.669  38.153   7.450  1.00  0.00     0.012 C 
BRANCH  19  26
HETATM   26  O   UNL     1      12.660  37.664   8.632  1.00  0.00    -0.385 OA
ATOM     27  HO  UNL     1      12.430  36.819   8.264  1.00  0.00     0.211 HD
ENDBRANCH  19  26
ENDBRANCH   5  19
TORSDOF 6
ENDMDL
MODEL 5
REMARK VINA RESULT:      -9.0      1.622      7.955
REMARK  6 active torsions:
REMARK  status: ('A' for Active; 'I' for Inactive)
REMARK    1  A    between atoms: C_1  and  O_21 
REMARK    2  A    between atoms: C_4  and  C_11 
REMARK    3  A    between atoms: O_6  and  C_24 
REMARK    4  A    between atoms: C_11  and  O_19 
REMARK    5  A    between atoms: C_12  and  C_24 
REMARK    6  A    between atoms: C_17  and  C_18 
ROOT
HETATM    1  C   UNL     1      11.278  39.106   4.714  1.00  0.00     0.164 C 
HETATM    2  C   UNL     1      11.753  39.859   6.977  1.00  0.00     0.046 C 
HETATM    3  C   UNL     1      10.414  40.462   6.575  1.00  0.00     0.014 C 
HETATM    4  C   UNL     1      12.101  38.771   5.965  1.00  0.00     0.111 C 
HETATM    5  C   UNL     1      10.064  39.910   5.207  1.00  0.00     0.056 C 
ENDROOT
BRANCH   4   6
HETATM    6  C   UNL     1      13.589  38.495   5.982  1.00  0.00    -0.021 C 
HETATM    7  C   UNL     1      14.266  37.530   5.229  1.00  0.00     0.011 C 
HETATM    8  C   UNL     1      15.595  37.210   5.537  1.00  0.00     0.019 C 
HETATM    9  C   UNL     1      16.253  37.839   6.598  1.00  0.00     0.040 C 
HETATM   10  C   UNL     1      15.679  38.973   7.162  1.00  0.00     0.019 C 
HETATM   11  C   UNL     1      14.379  39.320   6.802  1.00  0.00     0.011 C 
BRANCH   9  12
HETATM   12  C   UNL     1      17.564  37.292   7.126  1.00  0.00     0.209 C 
HETATM   13  O   UNL     1      17.958  37.645   8.265  1.00  0.00    -0.644 OA
HETATM   14  O   UNL     1      18.158  36.436   6.444  1.00  0.00    -0.644 OA
ENDBRANCH   9  12
ENDBRANCH   4   6
BRANCH   4  15
HETATM   15  O   UNL     1      11.532  37.535   6.405  1.00  0.00    -0.382 OA
ATOM     16  HO  UNL     1      12.274  37.081   6.786  1.00  0.00     0.211 HD
ENDBRANCH   4  15
BRANCH   1  17
HETATM   17  O   UNL     1      12.018  39.773   3.713  1.00  0.00    -0.392 OA
ATOM     18  HO  UNL     1      12.416  39.186   3.081  1.00  0.00     0.210 HD
ENDBRANCH   1  17
BRANCH   5  19
HETATM   19  C   UNL     1       8.735  39.135   5.167  1.00  0.00     0.088 C 
HETATM   20  C   UNL     1       7.811  39.865   4.192  1.00  0.00     0.125 C 
HETATM   21  C   UNL     1       6.388  39.377   4.314  1.00  0.00     0.152 C 
HETATM   22  O   UNL     1       5.814  38.806   3.363  1.00  0.00    -0.293 OA
HETATM   23  C   UNL     1       5.880  39.290   5.651  1.00  0.00     0.050 C 
HETATM   24  C   UNL     1       6.758  39.127   6.710  1.00  0.00     0.003 C 
HETATM   25  C   UNL     1       8.152  39.064   6.547  1.00  0.00     0.012 C 
BRANCH  19  26
HETATM   26  O   UNL     1       8.926  37.814   4.673  1.00  0.00    -0.385 OA
ATOM     27  HO  UNL     1       9.271  37.884   3.790  1.00  0.00     0.211 HD
ENDBRANCH  19  26
ENDBRANCH   5  19
TORSDOF 6
ENDMDL
MODEL 6
REMARK VINA RESULT:      -9.0      1.271      1.743
REMARK  6 active torsions:
REMARK  status: ('A' for Active; 'I' for Inactive)
REMARK    1  A    between atoms: C_1  and  O_21 
REMARK    2  A    between atoms: C_4  and  C_11 
REMARK    3  A    between atoms: O_6  and  C_24 
REMARK    4  A    between atoms: C_11  and  O_19 
REMARK    5  A    between atoms: C_12  and  C_24 
REMARK    6  A    between atoms: C_17  and  C_18 
ROOT
HETATM    1  C   UNL     1      11.298  38.347   7.049  1.00  0.00     0.164 C 
HETATM    2  C   UNL     1      10.383  40.429   6.187  1.00  0.00     0.046 C 
HETATM    3  C   UNL     1      11.521  40.795   7.131  1.00  0.00     0.014 C 
HETATM    4  C   UNL     1      10.481  38.935   5.891  1.00  0.00     0.111 C 
HETATM    5  C   UNL     1      12.161  39.500   7.588  1.00  0.00     0.056 C 
ENDROOT
BRANCH   4   6
HETATM    6  C   UNL     1       9.149  38.407   5.407  1.00  0.00    -0.021 C 
HETATM    7  C   UNL     1       8.939  37.282   4.604  1.00  0.00     0.011 C 
HETATM    8  C   UNL     1       7.684  37.063   4.022  1.00  0.00     0.019 C 
HETATM    9  C   UNL     1       6.636  37.965   4.225  1.00  0.00     0.040 C 
HETATM   10  C   UNL     1       6.762  38.920   5.227  1.00  0.00     0.019 C 
HETATM   11  C   UNL     1       7.999  39.088   5.846  1.00  0.00     0.011 C 
BRANCH   9  12
HETATM   12  C   UNL     1       5.387  37.904   3.368  1.00  0.00     0.209 C 
HETATM   13  O   UNL     1       4.566  36.972   3.551  1.00  0.00    -0.644 OA
HETATM   14  O   UNL     1       5.177  38.839   2.573  1.00  0.00    -0.644 OA
ENDBRANCH   9  12
ENDBRANCH   4   6
BRANCH   4  15
HETATM   15  O   UNL     1      11.340  38.746   4.762  1.00  0.00    -0.382 OA
ATOM     16  HO  UNL     1      11.451  37.803   4.733  1.00  0.00     0.211 HD
ENDBRANCH   4  15
BRANCH   1  17
HETATM   17  O   UNL     1      10.506  37.734   8.044  1.00  0.00    -0.392 OA
ATOM     18  HO  UNL     1      11.013  37.343   8.746  1.00  0.00     0.210 HD
ENDBRANCH   1  17
BRANCH   5  19
HETATM   19  C   UNL     1      13.657  39.385   7.239  1.00  0.00     0.088 C 
HETATM   20  C   UNL     1      14.358  38.753   8.442  1.00  0.00     0.125 C 
HETATM   21  C   UNL     1      15.857  38.884   8.334  1.00  0.00     0.152 C 
HETATM   22  O   UNL     1      16.591  37.877   8.243  1.00  0.00    -0.293 OA
HETATM   23  C   UNL     1      16.339  40.189   7.991  1.00  0.00     0.050 C 
HETATM   24  C   UNL     1      15.519  41.063   7.296  1.00  0.00     0.003 C 
HETATM   25  C   UNL     1      14.204  40.744   6.919  1.00  0.00     0.012 C 
BRANCH  19  26
HETATM   26  O   UNL     1      13.858  38.526   6.122  1.00  0.00    -0.385 OA
ATOM     27  HO  UNL     1      14.193  39.055   5.409  1.00  0.00     0.211 HD
ENDBRANCH  19  26
ENDBRANCH   5  19
TORSDOF 6
ENDMDL
MODEL 7
REMARK VINA RESULT:      -8.9      2.036      8.132
REMARK  6 active torsions:
REMARK  status: ('A' for Active; 'I' for Inactive)
REMARK    1  A    between atoms: C_1  and  O_21 
REMARK    2  A    between atoms: C_4  and  C_11 
REMARK    3  A    between atoms: O_6  and  C_24 
REMARK    4  A    between atoms: C_11  and  O_19 
REMARK    5  A    between atoms: C_12  and  C_24 
REMARK    6  A    between atoms: C_17  and  C_18 
ROOT
HETATM    1  C   UNL     1       9.244  39.607   4.192  1.00  0.00     0.164 C 
HETATM    2  C   UNL     1       8.988  39.312   6.593  1.00  0.00     0.046 C 
HETATM    3  C   UNL     1       7.591  39.317   5.989  1.00  0.00     0.014 C 
HETATM    4  C   UNL     1       9.991  39.152   5.453  1.00  0.00     0.111 C 
HETATM    5  C   UNL     1       7.750  39.394   4.484  1.00  0.00     0.056 C 
ENDROOT
BRANCH   4   6
HETATM    6  C   UNL     1      11.356  39.642   5.882  1.00  0.00    -0.021 C 
HETATM    7  C   UNL     1      12.582  39.318   5.293  1.00  0.00     0.011 C 
HETATM    8  C   UNL     1      13.779  39.632   5.949  1.00  0.00     0.019 C 
HETATM    9  C   UNL     1      13.763  40.259   7.199  1.00  0.00     0.040 C 
HETATM   10  C   UNL     1      12.573  40.818   7.651  1.00  0.00     0.019 C 
HETATM   11  C   UNL     1      11.397  40.551   6.955  1.00  0.00     0.011 C 
BRANCH   9  12
HETATM   12  C   UNL     1      15.019  40.325   8.045  1.00  0.00     0.209 C 
HETATM   13  O   UNL     1      15.029  39.765   9.168  1.00  0.00    -0.644 OA
HETATM   14  O   UNL     1      16.031  40.858   7.550  1.00  0.00    -0.644 OA
ENDBRANCH   9  12
ENDBRANCH   4   6
BRANCH   4  15
HETATM   15  O   UNL     1      10.201  37.756   5.219  1.00  0.00    -0.382 OA
ATOM     16  HO  UNL     1      10.941  37.748   4.623  1.00  0.00     0.211 HD
ENDBRANCH   4  15
BRANCH   1  17
HETATM   17  O   UNL     1       9.552  40.928   3.800  1.00  0.00    -0.392 OA
ATOM     18  HO  UNL     1       8.795  41.502   3.774  1.00  0.00     0.210 HD
ENDBRANCH   1  17
BRANCH   5  19
HETATM   19  C   UNL     1       7.121  38.210   3.728  1.00  0.00     0.088 C 
HETATM   20  C   UNL     1       7.439  38.395   2.245  1.00  0.00     0.125 C 
HETATM   21  C   UNL     1       6.611  37.471   1.386  1.00  0.00     0.152 C 
HETATM   22  O   UNL     1       7.144  36.583   0.687  1.00  0.00    -0.293 OA
HETATM   23  C   UNL     1       5.211  37.441   1.687  1.00  0.00     0.050 C 
HETATM   24  C   UNL     1       4.774  37.776   2.958  1.00  0.00     0.003 C 
HETATM   25  C   UNL     1       5.644  38.176   3.986  1.00  0.00     0.012 C 
BRANCH  19  26
HETATM   26  O   UNL     1       7.695  36.975   4.141  1.00  0.00    -0.385 OA
ATOM     27  HO  UNL     1       8.339  37.167   4.813  1.00  0.00     0.211 HD
ENDBRANCH  19  26
ENDBRANCH   5  19
TORSDOF 6
ENDMDL
MODEL 8
REMARK VINA RESULT:      -8.9      2.051      8.267
REMARK  6 active torsions:
REMARK  status: ('A' for Active; 'I' for Inactive)
REMARK    1  A    between atoms: C_1  and  O_21 
REMARK    2  A    between atoms: C_4  and  C_11 
REMARK    3  A    between atoms: O_6  and  C_24 
REMARK    4  A    between atoms: C_11  and  O_19 
REMARK    5  A    between atoms: C_12  and  C_24 
REMARK    6  A    between atoms: C_17  and  C_18 
ROOT
HETATM    1  C   UNL     1       9.261  39.827   4.253  1.00  0.00     0.164 C 
HETATM    2  C   UNL     1       9.041  39.445   6.645  1.00  0.00     0.046 C 
HETATM    3  C   UNL     1       7.633  39.527   6.071  1.00  0.00     0.014 C 
HETATM    4  C   UNL     1      10.014  39.293   5.479  1.00  0.00     0.111 C 
HETATM    5  C   UNL     1       7.766  39.659   4.567  1.00  0.00     0.056 C 
ENDROOT
BRANCH   4   6
HETATM    6  C   UNL     1      11.406  39.713   5.898  1.00  0.00    -0.021 C 
HETATM    7  C   UNL     1      12.609  39.330   5.298  1.00  0.00     0.011 C 
HETATM    8  C   UNL     1      13.825  39.582   5.946  1.00  0.00     0.019 C 
HETATM    9  C   UNL     1      13.850  40.206   7.196  1.00  0.00     0.040 C 
HETATM   10  C   UNL     1      12.693  40.823   7.659  1.00  0.00     0.019 C 
HETATM   11  C   UNL     1      11.499  40.617   6.971  1.00  0.00     0.011 C 
BRANCH   9  12
HETATM   12  C   UNL     1      15.115  40.208   8.033  1.00  0.00     0.209 C 
HETATM   13  O   UNL     1      16.122  40.832   7.616  1.00  0.00    -0.644 OA
HETATM   14  O   UNL     1      15.076  39.664   9.153  1.00  0.00    -0.644 OA
ENDBRANCH   9  12
ENDBRANCH   4   6
BRANCH   4  15
HETATM   15  O   UNL     1      10.165  37.901   5.184  1.00  0.00    -0.382 OA
ATOM     16  HO  UNL     1       9.520  37.755   4.502  1.00  0.00     0.211 HD
ENDBRANCH   4  15
BRANCH   1  17
HETATM   17  O   UNL     1       9.612  41.150   3.907  1.00  0.00    -0.392 OA
ATOM     18  HO  UNL     1       9.025  41.805   4.267  1.00  0.00     0.210 HD
ENDBRANCH   1  17
BRANCH   5  19
HETATM   19  C   UNL     1       7.076  38.531   3.778  1.00  0.00     0.088 C 
HETATM   20  C   UNL     1       6.294  39.185   2.639  1.00  0.00     0.125 C 
HETATM   21  C   UNL     1       5.337  38.209   2.000  1.00  0.00     0.152 C 
HETATM   22  O   UNL     1       5.461  37.866   0.805  1.00  0.00    -0.293 OA
HETATM   23  C   UNL     1       4.528  37.454   2.911  1.00  0.00     0.050 C 
HETATM   24  C   UNL     1       4.971  37.238   4.205  1.00  0.00     0.003 C 
HETATM   25  C   UNL     1       6.185  37.748   4.695  1.00  0.00     0.012 C 
BRANCH  19  26
HETATM   26  O   UNL     1       8.034  37.654   3.196  1.00  0.00    -0.385 OA
ATOM     27  HO  UNL     1       7.560  37.007   2.687  1.00  0.00     0.211 HD
ENDBRANCH  19  26
ENDBRANCH   5  19
TORSDOF 6
ENDMDL
MODEL 9
REMARK VINA RESULT:      -8.9      2.085      7.819
REMARK  6 active torsions:
REMARK  status: ('A' for Active; 'I' for Inactive)
REMARK    1  A    between atoms: C_1  and  O_21 
REMARK    2  A    between atoms: C_4  and  C_11 
REMARK    3  A    between atoms: O_6  and  C_24 
REMARK    4  A    between atoms: C_11  and  O_19 
REMARK    5  A    between atoms: C_12  and  C_24 
REMARK    6  A    between atoms: C_17  and  C_18 
ROOT
HETATM    1  C   UNL     1       9.332  39.333   4.410  1.00  0.00     0.164 C 
HETATM    2  C   UNL     1       8.229  38.760   6.501  1.00  0.00     0.046 C 
HETATM    3  C   UNL     1       7.178  39.387   5.596  1.00  0.00     0.014 C 
HETATM    4  C   UNL     1       9.448  38.429   5.645  1.00  0.00     0.111 C 
HETATM    5  C   UNL     1       7.835  39.649   4.255  1.00  0.00     0.056 C 
ENDROOT
BRANCH   4   6
HETATM    6  C   UNL     1      10.680  38.295   6.514  1.00  0.00    -0.021 C 
HETATM    7  C   UNL     1      11.462  39.338   7.019  1.00  0.00     0.011 C 
HETATM    8  C   UNL     1      12.713  39.062   7.585  1.00  0.00     0.019 C 
HETATM    9  C   UNL     1      13.196  37.751   7.644  1.00  0.00     0.040 C 
HETATM   10  C   UNL     1      12.317  36.703   7.396  1.00  0.00     0.019 C 
HETATM   11  C   UNL     1      11.051  36.992   6.891  1.00  0.00     0.011 C 
BRANCH   9  12
HETATM   12  C   UNL     1      14.652  37.479   7.969  1.00  0.00     0.209 C 
HETATM   13  O   UNL     1      15.336  38.382   8.511  1.00  0.00    -0.644 OA
HETATM   14  O   UNL     1      15.091  36.331   7.770  1.00  0.00    -0.644 OA
ENDBRANCH   9  12
ENDBRANCH   4   6
BRANCH   4  15
HETATM   15  O   UNL     1       9.285  37.116   5.100  1.00  0.00    -0.382 OA
ATOM     16  HO  UNL     1       9.511  36.552   5.830  1.00  0.00     0.211 HD
ENDBRANCH   4  15
BRANCH   1  17
HETATM   17  O   UNL     1      10.140  40.489   4.479  1.00  0.00    -0.392 OA
ATOM     18  HO  UNL     1      10.329  40.870   3.629  1.00  0.00     0.210 HD
ENDBRANCH   1  17
BRANCH   5  19
HETATM   19  C   UNL     1       7.156  38.929   3.076  1.00  0.00     0.088 C 
HETATM   20  C   UNL     1       6.361  37.759   3.652  1.00  0.00     0.125 C 
HETATM   21  C   UNL     1       5.918  36.809   2.567  1.00  0.00     0.152 C 
HETATM   22  O   UNL     1       4.707  36.622   2.323  1.00  0.00    -0.293 OA
HETATM   23  C   UNL     1       6.933  36.426   1.631  1.00  0.00     0.050 C 
HETATM   24  C   UNL     1       8.018  37.259   1.417  1.00  0.00     0.003 C 
HETATM   25  C   UNL     1       8.197  38.475   2.097  1.00  0.00     0.012 C 
BRANCH  19  26
HETATM   26  O   UNL     1       6.236  39.790   2.412  1.00  0.00    -0.385 OA
ATOM     27  HO  UNL     1       6.740  40.391   1.876  1.00  0.00     0.211 HD
ENDBRANCH  19  26
ENDBRANCH   5  19
TORSDOF 6
ENDMDL
