MODEL 1
REMARK VINA RESULT:      -3.6      0.000      0.000
REMARK  1 active torsions:
REMARK  status: ('A' for Active; 'I' for Inactive)
REMARK    1  A    between atoms: N_6  and  C_10 
ROOT
HETATM    1  C   UNL     1     -12.937 -20.387  31.256  1.00  0.00     0.129 C 
HETATM    2  C   UNL     1     -10.796 -21.391  31.164  1.00  0.00     0.071 C 
HETATM    3  C   UNL     1     -11.738 -20.724  32.249  1.00  0.00     0.037 C 
HETATM    4  O   UNL     1     -13.089 -21.556  30.463  1.00  0.00    -0.349 OA
HETATM    5  C   UNL     1     -12.309 -19.624  29.997  1.00  0.00     0.100 C 
HETATM    6  C   UNL     1     -11.813 -21.079  29.981  1.00  0.00     0.226 C 
ENDROOT
BRANCH   6   7
HETATM    7  N   UNL     1     -11.435 -21.657  28.651  1.00  0.00    -0.047 N 
ATOM      8  HN3 UNL     1     -10.749 -21.061  28.189  1.00  0.00     0.278 HD
ATOM      9  HN2 UNL     1     -10.879 -22.502  28.780  1.00  0.00     0.278 HD
ATOM     10  HN1 UNL     1     -12.218 -21.843  28.024  1.00  0.00     0.278 HD
ENDBRANCH   6   7
TORSDOF 1
ENDMDL
MODEL 2
REMARK VINA RESULT:      -3.6      2.039      2.854
REMARK  1 active torsions:
REMARK  status: ('A' for Active; 'I' for Inactive)
REMARK    1  A    between atoms: N_6  and  C_10 
ROOT
HETATM    1  C   UNL     1     -11.238 -21.215  30.786  1.00  0.00     0.129 C 
HETATM    2  C   UNL     1     -13.227 -20.064  31.352  1.00  0.00     0.071 C 
HETATM    3  C   UNL     1     -12.114 -20.010  30.224  1.00  0.00     0.037 C 
HETATM    4  O   UNL     1     -12.183 -22.217  31.135  1.00  0.00    -0.349 OA
HETATM    5  C   UNL     1     -10.979 -20.929  32.340  1.00  0.00     0.100 C 
HETATM    6  C   UNL     1     -12.475 -21.222  32.141  1.00  0.00     0.226 C 
ENDROOT
BRANCH   6   7
HETATM    7  N   UNL     1     -13.223 -21.779  33.315  1.00  0.00    -0.047 N 
ATOM      8  HN3 UNL     1     -13.205 -21.117  34.090  1.00  0.00     0.278 HD
ATOM      9  HN2 UNL     1     -14.224 -21.796  33.118  1.00  0.00     0.278 HD
ATOM     10  HN1 UNL     1     -12.911 -22.698  33.629  1.00  0.00     0.278 HD
ENDBRANCH   6   7
TORSDOF 1
ENDMDL
MODEL 3
REMARK VINA RESULT:      -3.5      1.084      1.166
REMARK  1 active torsions:
REMARK  status: ('A' for Active; 'I' for Inactive)
REMARK    1  A    between atoms: N_6  and  C_10 
ROOT
HETATM    1  C   UNL     1     -12.493 -21.026  31.581  1.00  0.00     0.129 C 
HETATM    2  C   UNL     1     -10.211 -21.284  32.155  1.00  0.00     0.071 C 
HETATM    3  C   UNL     1     -11.566 -20.873  32.866  1.00  0.00     0.037 C 
HETATM    4  O   UNL     1     -12.074 -22.242  30.976  1.00  0.00    -0.349 OA
HETATM    5  C   UNL     1     -11.798 -20.206  30.395  1.00  0.00     0.100 C 
HETATM    6  C   UNL     1     -10.913 -21.416  30.733  1.00  0.00     0.226 C 
ENDROOT
BRANCH   6   7
HETATM    7  N   UNL     1     -10.035 -21.947  29.640  1.00  0.00    -0.047 N 
ATOM      8  HN3 UNL     1     -10.598 -22.199  28.828  1.00  0.00     0.278 HD
ATOM      9  HN2 UNL     1      -9.475 -21.194  29.242  1.00  0.00     0.278 HD
ATOM     10  HN1 UNL     1      -9.436 -22.727  29.908  1.00  0.00     0.278 HD
ENDBRANCH   6   7
TORSDOF 1
ENDMDL
MODEL 4
REMARK VINA RESULT:      -3.3      5.476      6.331
REMARK  1 active torsions:
REMARK  status: ('A' for Active; 'I' for Inactive)
REMARK    1  A    between atoms: N_6  and  C_10 
ROOT
HETATM    1  C   UNL     1     -12.609 -23.607  34.569  1.00  0.00     0.129 C 
HETATM    2  C   UNL     1     -12.918 -21.889  36.167  1.00  0.00     0.071 C 
HETATM    3  C   UNL     1     -12.333 -22.044  34.702  1.00  0.00     0.037 C 
HETATM    4  O   UNL     1     -13.920 -23.788  35.088  1.00  0.00    -0.349 OA
HETATM    5  C   UNL     1     -12.004 -24.308  35.874  1.00  0.00     0.100 C 
HETATM    6  C   UNL     1     -13.205 -23.448  36.297  1.00  0.00     0.226 C 
ENDROOT
BRANCH   6   7
HETATM    7  N   UNL     1     -13.934 -23.857  37.542  1.00  0.00    -0.047 N 
ATOM      8  HN3 UNL     1     -14.894 -24.118  37.319  1.00  0.00     0.278 HD
ATOM      9  HN2 UNL     1     -13.579 -24.752  37.879  1.00  0.00     0.278 HD
ATOM     10  HN1 UNL     1     -13.922 -23.168  38.294  1.00  0.00     0.278 HD
ENDBRANCH   6   7
TORSDOF 1
ENDMDL
MODEL 5
REMARK VINA RESULT:      -3.3      1.938      2.298
REMARK  1 active torsions:
REMARK  status: ('A' for Active; 'I' for Inactive)
REMARK    1  A    between atoms: N_6  and  C_10 
ROOT
HETATM    1  C   UNL     1     -11.050 -20.561  30.794  1.00  0.00     0.129 C 
HETATM    2  C   UNL     1     -12.251 -21.271  32.706  1.00  0.00     0.071 C 
HETATM    3  C   UNL     1     -10.741 -21.137  32.246  1.00  0.00     0.037 C 
HETATM    4  O   UNL     1     -12.065 -19.588  31.001  1.00  0.00    -0.349 OA
HETATM    5  C   UNL     1     -12.129 -21.531  30.119  1.00  0.00     0.100 C 
HETATM    6  C   UNL     1     -12.801 -20.797  31.290  1.00  0.00     0.226 C 
ENDROOT
BRANCH   6   7
HETATM    7  N   UNL     1     -14.287 -20.610  31.217  1.00  0.00    -0.047 N 
ATOM      8  HN3 UNL     1     -14.763 -21.400  31.652  1.00  0.00     0.278 HD
ATOM      9  HN2 UNL     1     -14.578 -19.860  31.843  1.00  0.00     0.278 HD
ATOM     10  HN1 UNL     1     -14.655 -20.450  30.280  1.00  0.00     0.278 HD
ENDBRANCH   6   7
TORSDOF 1
ENDMDL
MODEL 6
REMARK VINA RESULT:      -3.2      2.913      3.528
REMARK  1 active torsions:
REMARK  status: ('A' for Active; 'I' for Inactive)
REMARK    1  A    between atoms: N_6  and  C_10 
ROOT
HETATM    1  C   UNL     1     -10.876 -22.733  31.841  1.00  0.00     0.129 C 
HETATM    2  C   UNL     1     -11.372 -20.759  33.048  1.00  0.00     0.071 C 
HETATM    3  C   UNL     1     -10.248 -21.286  32.063  1.00  0.00     0.037 C 
HETATM    4  O   UNL     1     -12.265 -22.499  31.652  1.00  0.00    -0.349 OA
HETATM    5  C   UNL     1     -11.184 -23.344  33.288  1.00  0.00     0.100 C 
HETATM    6  C   UNL     1     -12.131 -22.157  33.049  1.00  0.00     0.226 C 
ENDROOT
BRANCH   6   7
HETATM    7  N   UNL     1     -13.438 -22.169  33.783  1.00  0.00    -0.047 N 
ATOM      8  HN3 UNL     1     -14.198 -21.911  33.153  1.00  0.00     0.278 HD
ATOM      9  HN2 UNL     1     -13.708 -23.127  34.005  1.00  0.00     0.278 HD
ATOM     10  HN1 UNL     1     -13.466 -21.591  34.623  1.00  0.00     0.278 HD
ENDBRANCH   6   7
TORSDOF 1
ENDMDL
MODEL 7
REMARK VINA RESULT:      -3.2      1.690      2.420
REMARK  1 active torsions:
REMARK  status: ('A' for Active; 'I' for Inactive)
REMARK    1  A    between atoms: N_6  and  C_10 
ROOT
HETATM    1  C   UNL     1     -10.832 -21.291  32.249  1.00  0.00     0.129 C 
HETATM    2  C   UNL     1     -11.806 -20.787  30.151  1.00  0.00     0.071 C 
HETATM    3  C   UNL     1     -12.012 -20.391  31.672  1.00  0.00     0.037 C 
HETATM    4  O   UNL     1      -9.747 -21.081  31.355  1.00  0.00    -0.349 OA
HETATM    5  C   UNL     1     -11.026 -22.765  31.654  1.00  0.00     0.100 C 
HETATM    6  C   UNL     1     -10.648 -21.821  30.501  1.00  0.00     0.226 C 
ENDROOT
BRANCH   6   7
HETATM    7  N   UNL     1      -9.963 -22.431  29.316  1.00  0.00    -0.047 N 
ATOM      8  HN3 UNL     1      -8.951 -22.382  29.431  1.00  0.00     0.278 HD
ATOM      9  HN2 UNL     1     -10.094 -23.442  29.316  1.00  0.00     0.278 HD
ATOM     10  HN1 UNL     1     -10.234 -22.041  28.413  1.00  0.00     0.278 HD
ENDBRANCH   6   7
TORSDOF 1
ENDMDL
MODEL 8
REMARK VINA RESULT:      -3.1      2.488      2.968
REMARK  1 active torsions:
REMARK  status: ('A' for Active; 'I' for Inactive)
REMARK    1  A    between atoms: N_6  and  C_10 
ROOT
HETATM    1  C   UNL     1     -12.485 -21.433  32.564  1.00  0.00     0.129 C 
HETATM    2  C   UNL     1     -11.712 -23.207  33.926  1.00  0.00     0.071 C 
HETATM    3  C   UNL     1     -12.884 -22.140  33.934  1.00  0.00     0.037 C 
HETATM    4  O   UNL     1     -12.187 -22.504  31.678  1.00  0.00    -0.349 OA
HETATM    5  C   UNL     1     -10.926 -21.080  32.649  1.00  0.00     0.100 C 
HETATM    6  C   UNL     1     -11.077 -22.609  32.597  1.00  0.00     0.226 C 
ENDROOT
BRANCH   6   7
HETATM    7  N   UNL     1      -9.925 -23.389  32.037  1.00  0.00    -0.047 N 
ATOM      8  HN3 UNL     1     -10.234 -23.953  31.246  1.00  0.00     0.278 HD
ATOM      9  HN2 UNL     1      -9.273 -22.763  31.565  1.00  0.00     0.278 HD
ATOM     10  HN1 UNL     1      -9.430 -23.971  32.712  1.00  0.00     0.278 HD
ENDBRANCH   6   7
TORSDOF 1
ENDMDL
MODEL 9
REMARK VINA RESULT:      -3.1      4.451      5.146
REMARK  1 active torsions:
REMARK  status: ('A' for Active; 'I' for Inactive)
REMARK    1  A    between atoms: N_6  and  C_10 
ROOT
HETATM    1  C   UNL     1     -12.760 -22.139  34.164  1.00  0.00     0.129 C 
HETATM    2  C   UNL     1     -13.155 -23.422  36.113  1.00  0.00     0.071 C 
HETATM    3  C   UNL     1     -12.778 -21.928  35.742  1.00  0.00     0.037 C 
HETATM    4  O   UNL     1     -13.916 -22.918  33.890  1.00  0.00    -0.349 OA
HETATM    5  C   UNL     1     -11.840 -23.414  33.867  1.00  0.00     0.100 C 
HETATM    6  C   UNL     1     -13.108 -23.888  34.593  1.00  0.00     0.226 C 
ENDROOT
BRANCH   6   7
HETATM    7  N   UNL     1     -13.547 -25.301  34.350  1.00  0.00    -0.047 N 
ATOM      8  HN3 UNL     1     -12.735 -25.900  34.197  1.00  0.00     0.278 HD
ATOM      9  HN2 UNL     1     -13.910 -25.710  35.210  1.00  0.00     0.278 HD
ATOM     10  HN1 UNL     1     -14.219 -25.420  33.592  1.00  0.00     0.278 HD
ENDBRANCH   6   7
TORSDOF 1
ENDMDL
