MODEL 1
REMARK VINA RESULT:      -4.1      0.000      0.000
REMARK  0 active torsions:
REMARK  status: ('A' for Active; 'I' for Inactive)
ROOT
HETATM    1  N   UNL     1     -12.660 -19.282  30.088  1.00  0.00    -0.312 N 
ATOM      2  HN  UNL     1     -11.749 -19.252  29.629  1.00  0.00     0.170 HD
HETATM    3  O   UNL     1     -13.597 -17.262  29.485  1.00  0.00    -0.267 OA
HETATM    4  N   UNL     1     -14.362 -20.011  31.315  1.00  0.00    -0.351 N 
ATOM      5  HN  UNL     1     -14.911 -20.574  31.966  1.00  0.00     0.166 HD
HETATM    6  C   UNL     1     -14.793 -18.933  30.607  1.00  0.00     0.164 C 
HETATM    7  C   UNL     1     -12.134 -20.819  31.961  1.00  0.00     0.089 C 
HETATM    8  C   UNL     1     -13.078 -20.188  30.990  1.00  0.00     0.079 C 
HETATM    9  C   UNL     1     -13.686 -18.416  29.909  1.00  0.00     0.262 C 
ENDROOT
TORSDOF 0
ENDMDL
MODEL 2
REMARK VINA RESULT:      -3.6      2.293      3.421
REMARK  0 active torsions:
REMARK  status: ('A' for Active; 'I' for Inactive)
ROOT
HETATM    1  N   UNL     1     -13.358 -20.630  31.901  1.00  0.00    -0.312 N 
ATOM      2  HN  UNL     1     -14.086 -20.958  32.537  1.00  0.00     0.170 HD
HETATM    3  O   UNL     1     -11.421 -21.137  33.046  1.00  0.00    -0.267 OA
HETATM    4  N   UNL     1     -12.388 -19.725  30.119  1.00  0.00    -0.351 N 
ATOM      5  HN  UNL     1     -12.261 -19.216  29.244  1.00  0.00     0.166 HD
HETATM    6  C   UNL     1     -11.425 -20.367  30.835  1.00  0.00     0.164 C 
HETATM    7  C   UNL     1     -14.622 -18.876  30.687  1.00  0.00     0.089 C 
HETATM    8  C   UNL     1     -13.532 -19.893  30.790  1.00  0.00     0.079 C 
HETATM    9  C   UNL     1     -12.027 -20.853  32.010  1.00  0.00     0.262 C 
ENDROOT
TORSDOF 0
ENDMDL
MODEL 3
REMARK VINA RESULT:      -3.5      1.915      2.559
REMARK  0 active torsions:
REMARK  status: ('A' for Active; 'I' for Inactive)
ROOT
HETATM    1  N   UNL     1     -13.016 -20.822  32.155  1.00  0.00    -0.312 N 
ATOM      2  HN  UNL     1     -13.542 -21.136  32.972  1.00  0.00     0.170 HD
HETATM    3  O   UNL     1     -14.685 -20.243  30.672  1.00  0.00    -0.267 OA
HETATM    4  N   UNL     1     -11.300 -20.331  30.834  1.00  0.00    -0.351 N 
ATOM      5  HN  UNL     1     -10.348 -20.271  30.471  1.00  0.00     0.166 HD
HETATM    6  C   UNL     1     -12.420 -19.802  30.272  1.00  0.00     0.164 C 
HETATM    7  C   UNL     1     -10.924 -22.110  32.485  1.00  0.00     0.089 C 
HETATM    8  C   UNL     1     -11.692 -20.944  31.954  1.00  0.00     0.079 C 
HETATM    9  C   UNL     1     -13.516 -20.201  31.060  1.00  0.00     0.262 C 
ENDROOT
TORSDOF 0
ENDMDL
MODEL 4
REMARK VINA RESULT:      -3.5      4.371      4.938
REMARK  0 active torsions:
REMARK  status: ('A' for Active; 'I' for Inactive)
ROOT
HETATM    1  N   UNL     1      -9.757 -22.585  29.586  1.00  0.00    -0.312 N 
ATOM      2  HN  UNL     1      -9.019 -22.995  30.159  1.00  0.00     0.170 HD
HETATM    3  O   UNL     1      -9.014 -22.988  27.440  1.00  0.00    -0.267 OA
HETATM    4  N   UNL     1     -11.633 -21.533  29.028  1.00  0.00    -0.351 N 
ATOM      5  HN  UNL     1     -12.487 -20.980  29.101  1.00  0.00     0.166 HD
HETATM    6  C   UNL     1     -11.142 -22.128  27.908  1.00  0.00     0.164 C 
HETATM    7  C   UNL     1     -10.621 -20.885  31.170  1.00  0.00     0.089 C 
HETATM    8  C   UNL     1     -10.776 -21.818  30.013  1.00  0.00     0.079 C 
HETATM    9  C   UNL     1      -9.905 -22.708  28.245  1.00  0.00     0.262 C 
ENDROOT
TORSDOF 0
ENDMDL
MODEL 5
REMARK VINA RESULT:      -3.4      3.534      4.076
REMARK  0 active torsions:
REMARK  status: ('A' for Active; 'I' for Inactive)
ROOT
HETATM    1  N   UNL     1     -12.124 -21.340  30.462  1.00  0.00    -0.312 N 
ATOM      2  HN  UNL     1     -13.059 -21.038  30.737  1.00  0.00     0.170 HD
HETATM    3  O   UNL     1     -12.559 -22.868  28.789  1.00  0.00    -0.267 OA
HETATM    4  N   UNL     1      -9.910 -21.514  30.416  1.00  0.00    -0.351 N 
ATOM      5  HN  UNL     1      -8.929 -21.418  30.681  1.00  0.00     0.166 HD
HETATM    6  C   UNL     1     -10.398 -22.128  29.305  1.00  0.00     0.164 C 
HETATM    7  C   UNL     1     -10.907 -20.910  32.579  1.00  0.00     0.089 C 
HETATM    8  C   UNL     1     -10.970 -21.062  31.094  1.00  0.00     0.079 C 
HETATM    9  C   UNL     1     -11.802 -22.101  29.389  1.00  0.00     0.262 C 
ENDROOT
TORSDOF 0
ENDMDL
MODEL 6
REMARK VINA RESULT:      -3.2      3.365      4.086
REMARK  0 active torsions:
REMARK  status: ('A' for Active; 'I' for Inactive)
ROOT
HETATM    1  N   UNL     1     -11.719 -22.412  29.400  1.00  0.00    -0.312 N 
ATOM      2  HN  UNL     1     -12.280 -23.072  28.862  1.00  0.00     0.170 HD
HETATM    3  O   UNL     1     -13.316 -21.024  30.319  1.00  0.00    -0.267 OA
HETATM    4  N   UNL     1      -9.947 -21.400  30.279  1.00  0.00    -0.351 N 
ATOM      5  HN  UNL     1      -8.978 -21.137  30.461  1.00  0.00     0.166 HD
HETATM    6  C   UNL     1     -11.053 -20.923  30.911  1.00  0.00     0.164 C 
HETATM    7  C   UNL     1      -9.595 -22.530  28.127  1.00  0.00     0.089 C 
HETATM    8  C   UNL     1     -10.381 -22.282  29.373  1.00  0.00     0.079 C 
HETATM    9  C   UNL     1     -12.176 -21.493  30.284  1.00  0.00     0.262 C 
ENDROOT
TORSDOF 0
ENDMDL
MODEL 7
REMARK VINA RESULT:      -3.1      3.178      3.921
REMARK  0 active torsions:
REMARK  status: ('A' for Active; 'I' for Inactive)
ROOT
HETATM    1  N   UNL     1     -11.215 -22.315  32.888  1.00  0.00    -0.312 N 
ATOM      2  HN  UNL     1     -10.581 -23.011  33.282  1.00  0.00     0.170 HD
HETATM    3  O   UNL     1      -9.843 -21.135  31.458  1.00  0.00    -0.267 OA
HETATM    4  N   UNL     1     -13.070 -21.158  32.497  1.00  0.00    -0.351 N 
ATOM      5  HN  UNL     1     -14.022 -20.802  32.587  1.00  0.00     0.166 HD
HETATM    6  C   UNL     1     -12.162 -20.821  31.542  1.00  0.00     0.164 C 
HETATM    7  C   UNL     1     -12.870 -22.168  34.727  1.00  0.00     0.089 C 
HETATM    8  C   UNL     1     -12.469 -22.047  33.293  1.00  0.00     0.079 C 
HETATM    9  C   UNL     1     -10.959 -21.481  31.852  1.00  0.00     0.262 C 
ENDROOT
TORSDOF 0
ENDMDL
MODEL 8
REMARK VINA RESULT:      -3.1      4.808      5.605
REMARK  0 active torsions:
REMARK  status: ('A' for Active; 'I' for Inactive)
ROOT
HETATM    1  N   UNL     1     -13.236 -22.210  33.758  1.00  0.00    -0.312 N 
ATOM      2  HN  UNL     1     -13.903 -21.449  33.892  1.00  0.00     0.170 HD
HETATM    3  O   UNL     1     -13.946 -23.781  35.290  1.00  0.00    -0.267 OA
HETATM    4  N   UNL     1     -11.515 -23.369  32.963  1.00  0.00    -0.351 N 
ATOM      5  HN  UNL     1     -10.658 -23.601  32.461  1.00  0.00     0.166 HD
HETATM    6  C   UNL     1     -12.279 -24.216  33.704  1.00  0.00     0.164 C 
HETATM    7  C   UNL     1     -11.303 -20.923  32.889  1.00  0.00     0.089 C 
HETATM    8  C   UNL     1     -12.109 -22.174  33.024  1.00  0.00     0.079 C 
HETATM    9  C   UNL     1     -13.310 -23.455  34.285  1.00  0.00     0.262 C 
ENDROOT
TORSDOF 0
ENDMDL
MODEL 9
REMARK VINA RESULT:      -3.1      6.240      6.775
REMARK  0 active torsions:
REMARK  status: ('A' for Active; 'I' for Inactive)
ROOT
HETATM    1  N   UNL     1     -12.744 -24.150  35.605  1.00  0.00    -0.312 N 
ATOM      2  HN  UNL     1     -12.889 -25.116  35.310  1.00  0.00     0.170 HD
HETATM    3  O   UNL     1     -13.788 -22.949  33.935  1.00  0.00    -0.267 OA
HETATM    4  N   UNL     1     -12.066 -22.408  36.805  1.00  0.00    -0.351 N 
ATOM      5  HN  UNL     1     -11.579 -21.852  37.508  1.00  0.00     0.166 HD
HETATM    6  C   UNL     1     -12.966 -21.957  35.890  1.00  0.00     0.164 C 
HETATM    7  C   UNL     1     -10.675 -24.428  36.943  1.00  0.00     0.089 C 
HETATM    8  C   UNL     1     -11.948 -23.723  36.601  1.00  0.00     0.079 C 
HETATM    9  C   UNL     1     -13.316 -23.045  35.070  1.00  0.00     0.262 C 
ENDROOT
TORSDOF 0
ENDMDL
