MODEL 1
REMARK VINA RESULT:      -9.4      0.000      0.000
REMARK  4 active torsions:
REMARK  status: ('A' for Active; 'I' for Inactive)
REMARK    1  A    between atoms: C_1  and  O_2 
REMARK    2  A    between atoms: C_4  and  C_6 
REMARK    3  A    between atoms: N_10  and  C_24 
REMARK    4  A    between atoms: N_10  and  C_29 
ROOT
HETATM    1  C   UNL     1      78.063  51.648  44.227  1.00  0.00     0.109 C 
HETATM    2  C   UNL     1      76.131  52.750  42.007  1.00  0.00    -0.018 C 
HETATM    3  C   UNL     1      77.108  52.635  44.275  1.00  0.00     0.041 C 
HETATM    4  C   UNL     1      76.211  53.109  43.349  1.00  0.00     0.016 C 
HETATM    5  N   UNL     1      78.264  51.465  41.823  1.00  0.00    -0.349 N 
ATOM      6  HN  UNL     1      78.887  51.205  41.058  1.00  0.00     0.167 HD
HETATM    7  C   UNL     1      78.748  51.250  43.052  1.00  0.00     0.139 C 
HETATM    8  C   UNL     1      77.098  51.963  41.454  1.00  0.00     0.101 C 
ENDROOT
BRANCH   7   9
HETATM    9  N   UNL     1      79.951  50.579  43.133  1.00  0.00    -0.345 N 
ATOM     10  HN  UNL     1      80.276  50.217  44.030  1.00  0.00     0.167 HD
BRANCH   9  11
HETATM   11  C   UNL     1      80.727  50.395  41.974  1.00  0.00     0.019 C 
HETATM   12  C   UNL     1      81.213  49.059  41.508  1.00  0.00     0.231 C 
HETATM   13  N   UNL     1      80.422  48.856  40.272  1.00  0.00    -0.065 N 
HETATM   14  C   UNL     1      82.586  49.433  40.981  1.00  0.00     0.045 C 
HETATM   15  C   UNL     1      80.923  49.857  39.329  1.00  0.00     0.238 C 
ATOM     16  HN2 UNL     1      80.452  47.902  39.916  1.00  0.00     0.278 HD
ATOM     17  HN1 UNL     1      79.412  48.896  40.418  1.00  0.00     0.278 HD
HETATM   18  C   UNL     1      82.059  50.557  40.085  1.00  0.00     0.019 C 
HETATM   19  C   UNL     1      81.341  51.463  41.109  1.00  0.00     0.061 C 
ENDBRANCH   9  11
ENDBRANCH   7   9
BRANCH   1  20
HETATM   20  O   UNL     1      78.390  51.003  45.379  1.00  0.00    -0.357 OA
ATOM     21  HO  UNL     1      79.017  50.291  45.338  1.00  0.00     0.218 HD
ENDBRANCH   1  20
BRANCH   2  22
HETATM   22  C   UNL     1      74.988  53.216  41.177  1.00  0.00    -0.064 C 
HETATM   23  C   UNL     1      74.988  52.719  39.743  1.00  0.00     0.036 C 
HETATM   24  C   UNL     1      74.447  53.715  38.721  1.00  0.00     0.009 C 
HETATM   25  C   UNL     1      73.688  54.912  39.288  1.00  0.00    -0.014 C 
HETATM   26  C   UNL     1      72.985  54.503  40.598  1.00  0.00     0.013 C 
HETATM   27  C   UNL     1      74.681  55.991  39.753  1.00  0.00     0.005 C 
HETATM   28  C   UNL     1      74.193  54.458  41.558  1.00  0.00     0.016 C 
HETATM   29  C   UNL     1      74.980  55.714  41.218  1.00  0.00     0.009 C 
ENDBRANCH   2  22
TORSDOF 4
ENDMDL
MODEL 2
REMARK VINA RESULT:      -9.1      3.009      5.051
REMARK  4 active torsions:
REMARK  status: ('A' for Active; 'I' for Inactive)
REMARK    1  A    between atoms: C_1  and  O_2 
REMARK    2  A    between atoms: C_4  and  C_6 
REMARK    3  A    between atoms: N_10  and  C_24 
REMARK    4  A    between atoms: N_10  and  C_29 
ROOT
HETATM    1  C   UNL     1      81.780  49.858  40.779  1.00  0.00     0.109 C 
HETATM    2  C   UNL     1      79.394  51.162  42.354  1.00  0.00    -0.018 C 
HETATM    3  C   UNL     1      81.491  49.873  42.123  1.00  0.00     0.041 C 
HETATM    4  C   UNL     1      80.437  50.382  42.843  1.00  0.00     0.016 C 
HETATM    5  N   UNL     1      80.301  51.639  40.077  1.00  0.00    -0.349 N 
ATOM      6  HN  UNL     1      80.145  52.362  39.374  1.00  0.00     0.167 HD
HETATM    7  C   UNL     1      81.355  50.845  39.855  1.00  0.00     0.139 C 
HETATM    8  C   UNL     1      79.433  51.624  41.072  1.00  0.00     0.101 C 
ENDROOT
BRANCH   7   9
HETATM    9  N   UNL     1      82.005  51.003  38.647  1.00  0.00    -0.345 N 
ATOM     10  HN  UNL     1      83.017  51.124  38.622  1.00  0.00     0.167 HD
BRANCH   9  11
HETATM   11  C   UNL     1      81.264  50.995  37.452  1.00  0.00     0.019 C 
HETATM   12  C   UNL     1      80.494  49.807  36.964  1.00  0.00     0.231 C 
HETATM   13  N   UNL     1      79.093  50.266  37.114  1.00  0.00    -0.065 N 
HETATM   14  C   UNL     1      80.735  49.916  35.471  1.00  0.00     0.045 C 
HETATM   15  C   UNL     1      78.931  51.329  36.121  1.00  0.00     0.238 C 
ATOM     16  HN2 UNL     1      78.404  49.518  37.034  1.00  0.00     0.278 HD
ATOM     17  HN1 UNL     1      78.851  50.548  38.064  1.00  0.00     0.278 HD
HETATM   18  C   UNL     1      80.278  51.375  35.390  1.00  0.00     0.019 C 
HETATM   19  C   UNL     1      81.237  52.059  36.388  1.00  0.00     0.061 C 
ENDBRANCH   9  11
ENDBRANCH   7   9
BRANCH   1  20
HETATM   20  O   UNL     1      82.532  48.836  40.288  1.00  0.00    -0.357 OA
ATOM     21  HO  UNL     1      83.039  48.313  40.897  1.00  0.00     0.218 HD
ENDBRANCH   1  20
BRANCH   2  22
HETATM   22  C   UNL     1      78.232  51.484  43.225  1.00  0.00    -0.064 C 
HETATM   23  C   UNL     1      77.025  52.053  42.504  1.00  0.00     0.036 C 
HETATM   24  C   UNL     1      76.244  53.101  43.292  1.00  0.00     0.009 C 
HETATM   25  C   UNL     1      76.565  53.197  44.782  1.00  0.00    -0.014 C 
HETATM   26  C   UNL     1      76.984  51.810  45.308  1.00  0.00     0.013 C 
HETATM   27  C   UNL     1      77.833  54.042  44.992  1.00  0.00     0.005 C 
HETATM   28  C   UNL     1      78.408  51.708  44.721  1.00  0.00     0.016 C 
HETATM   29  C   UNL     1      79.011  53.080  44.982  1.00  0.00     0.009 C 
ENDBRANCH   2  22
TORSDOF 4
ENDMDL
MODEL 3
REMARK VINA RESULT:      -9.1      1.981      6.949
REMARK  4 active torsions:
REMARK  status: ('A' for Active; 'I' for Inactive)
REMARK    1  A    between atoms: C_1  and  O_2 
REMARK    2  A    between atoms: C_4  and  C_6 
REMARK    3  A    between atoms: N_10  and  C_24 
REMARK    4  A    between atoms: N_10  and  C_29 
ROOT
HETATM    1  C   UNL     1      76.729  52.935  43.949  1.00  0.00     0.109 C 
HETATM    2  C   UNL     1      78.558  50.937  42.357  1.00  0.00    -0.018 C 
HETATM    3  C   UNL     1      77.595  51.962  44.389  1.00  0.00     0.041 C 
HETATM    4  C   UNL     1      78.447  51.108  43.733  1.00  0.00     0.016 C 
HETATM    5  N   UNL     1      76.546  52.231  41.642  1.00  0.00    -0.349 N 
ATOM      6  HN  UNL     1      75.948  52.239  40.816  1.00  0.00     0.167 HD
HETATM    7  C   UNL     1      76.082  52.924  42.689  1.00  0.00     0.139 C 
HETATM    8  C   UNL     1      77.664  51.539  41.522  1.00  0.00     0.101 C 
ENDROOT
BRANCH   7   9
HETATM    9  N   UNL     1      74.942  53.673  42.478  1.00  0.00    -0.345 N 
ATOM     10  HN  UNL     1      74.298  53.854  43.248  1.00  0.00     0.167 HD
BRANCH   9  11
HETATM   11  C   UNL     1      74.674  54.187  41.197  1.00  0.00     0.019 C 
HETATM   12  C   UNL     1      73.807  53.492  40.193  1.00  0.00     0.231 C 
HETATM   13  N   UNL     1      72.629  54.387  40.131  1.00  0.00    -0.065 N 
HETATM   14  C   UNL     1      74.554  53.816  38.913  1.00  0.00     0.045 C 
HETATM   15  C   UNL     1      73.116  55.619  39.508  1.00  0.00     0.238 C 
ATOM     16  HN2 UNL     1      71.824  53.977  39.658  1.00  0.00     0.278 HD
ATOM     17  HN1 UNL     1      72.174  54.533  41.032  1.00  0.00     0.278 HD
HETATM   18  C   UNL     1      74.584  55.323  39.179  1.00  0.00     0.019 C 
HETATM   19  C   UNL     1      75.307  55.385  40.542  1.00  0.00     0.061 C 
ENDBRANCH   9  11
ENDBRANCH   7   9
BRANCH   1  20
HETATM   20  O   UNL     1      76.460  53.985  44.772  1.00  0.00    -0.357 OA
ATOM     21  HO  UNL     1      75.634  53.995  45.239  1.00  0.00     0.218 HD
ENDBRANCH   1  20
BRANCH   2  22
HETATM   22  C   UNL     1      79.656  50.106  41.794  1.00  0.00    -0.064 C 
HETATM   23  C   UNL     1      80.932  50.084  42.614  1.00  0.00     0.036 C 
HETATM   24  C   UNL     1      82.218  50.013  41.795  1.00  0.00     0.009 C 
HETATM   25  C   UNL     1      82.056  49.646  40.322  1.00  0.00    -0.014 C 
HETATM   26  C   UNL     1      80.835  48.719  40.154  1.00  0.00     0.013 C 
HETATM   27  C   UNL     1      81.655  50.891  39.512  1.00  0.00     0.005 C 
HETATM   28  C   UNL     1      79.688  49.739  40.316  1.00  0.00     0.016 C 
HETATM   29  C   UNL     1      80.135  50.931  39.485  1.00  0.00     0.009 C 
ENDBRANCH   2  22
TORSDOF 4
ENDMDL
MODEL 4
REMARK VINA RESULT:      -8.7      3.053      7.649
REMARK  4 active torsions:
REMARK  status: ('A' for Active; 'I' for Inactive)
REMARK    1  A    between atoms: C_1  and  O_2 
REMARK    2  A    between atoms: C_4  and  C_6 
REMARK    3  A    between atoms: N_10  and  C_24 
REMARK    4  A    between atoms: N_10  and  C_29 
ROOT
HETATM    1  C   UNL     1      75.161  54.230  41.567  1.00  0.00     0.109 C 
HETATM    2  C   UNL     1      77.246  51.887  41.370  1.00  0.00    -0.018 C 
HETATM    3  C   UNL     1      75.677  53.401  42.535  1.00  0.00     0.041 C 
HETATM    4  C   UNL     1      76.623  52.406  42.500  1.00  0.00     0.016 C 
HETATM    5  N   UNL     1      75.824  52.958  39.619  1.00  0.00    -0.349 N 
ATOM      6  HN  UNL     1      75.602  52.754  38.644  1.00  0.00     0.167 HD
HETATM    7  C   UNL     1      75.062  53.897  40.193  1.00  0.00     0.139 C 
HETATM    8  C   UNL     1      76.820  52.257  40.128  1.00  0.00     0.101 C 
ENDROOT
BRANCH   7   9
HETATM    9  N   UNL     1      74.182  54.569  39.369  1.00  0.00    -0.345 N 
ATOM     10  HN  UNL     1      74.364  55.537  39.107  1.00  0.00     0.167 HD
BRANCH   9  11
HETATM   11  C   UNL     1      73.034  53.911  38.892  1.00  0.00     0.019 C 
HETATM   12  C   UNL     1      71.794  53.716  39.708  1.00  0.00     0.231 C 
HETATM   13  N   UNL     1      70.829  54.602  39.016  1.00  0.00    -0.065 N 
HETATM   14  C   UNL     1      71.379  52.331  39.252  1.00  0.00     0.045 C 
HETATM   15  C   UNL     1      70.598  53.974  37.715  1.00  0.00     0.238 C 
ATOM     16  HN2 UNL     1      69.976  54.776  39.547  1.00  0.00     0.278 HD
ATOM     17  HN1 UNL     1      71.131  55.575  38.957  1.00  0.00     0.278 HD
HETATM   18  C   UNL     1      71.425  52.683  37.764  1.00  0.00     0.019 C 
HETATM   19  C   UNL     1      72.886  53.154  37.600  1.00  0.00     0.061 C 
ENDBRANCH   9  11
ENDBRANCH   7   9
BRANCH   1  20
HETATM   20  O   UNL     1      74.703  55.456  41.939  1.00  0.00    -0.357 OA
ATOM     21  HO  UNL     1      74.480  55.599  42.851  1.00  0.00     0.218 HD
ENDBRANCH   1  20
BRANCH   2  22
HETATM   22  C   UNL     1      78.382  50.938  41.513  1.00  0.00    -0.064 C 
HETATM   23  C   UNL     1      78.785  50.627  42.942  1.00  0.00     0.036 C 
HETATM   24  C   UNL     1      80.282  50.416  43.153  1.00  0.00     0.009 C 
HETATM   25  C   UNL     1      81.117  50.218  41.890  1.00  0.00    -0.014 C 
HETATM   26  C   UNL     1      80.259  49.529  40.810  1.00  0.00     0.013 C 
HETATM   27  C   UNL     1      81.439  51.581  41.255  1.00  0.00     0.005 C 
HETATM   28  C   UNL     1      79.364  50.708  40.372  1.00  0.00     0.016 C 
HETATM   29  C   UNL     1      80.328  51.879  40.260  1.00  0.00     0.009 C 
ENDBRANCH   2  22
TORSDOF 4
ENDMDL
MODEL 5
REMARK VINA RESULT:      -8.5      1.465      2.006
REMARK  4 active torsions:
REMARK  status: ('A' for Active; 'I' for Inactive)
REMARK    1  A    between atoms: C_1  and  O_2 
REMARK    2  A    between atoms: C_4  and  C_6 
REMARK    3  A    between atoms: N_10  and  C_24 
REMARK    4  A    between atoms: N_10  and  C_29 
ROOT
HETATM    1  C   UNL     1      79.128  51.069  42.644  1.00  0.00     0.109 C 
HETATM    2  C   UNL     1      76.681  52.341  41.137  1.00  0.00    -0.018 C 
HETATM    3  C   UNL     1      78.030  51.746  43.121  1.00  0.00     0.041 C 
HETATM    4  C   UNL     1      76.918  52.268  42.505  1.00  0.00     0.016 C 
HETATM    5  N   UNL     1      78.950  51.701  40.315  1.00  0.00    -0.349 N 
ATOM      6  HN  UNL     1      79.472  51.845  39.451  1.00  0.00     0.167 HD
HETATM    7  C   UNL     1      79.666  51.228  41.343  1.00  0.00     0.139 C 
HETATM    8  C   UNL     1      77.668  52.010  40.256  1.00  0.00     0.101 C 
ENDROOT
BRANCH   7   9
HETATM    9  N   UNL     1      80.968  50.858  41.071  1.00  0.00    -0.345 N 
ATOM     10  HN  UNL     1      81.733  51.224  41.638  1.00  0.00     0.167 HD
BRANCH   9  11
HETATM   11  C   UNL     1      81.233  49.974  40.010  1.00  0.00     0.019 C 
HETATM   12  C   UNL     1      81.675  50.422  38.652  1.00  0.00     0.231 C 
HETATM   13  N   UNL     1      83.072  49.931  38.605  1.00  0.00    -0.065 N 
HETATM   14  C   UNL     1      80.931  49.430  37.779  1.00  0.00     0.045 C 
HETATM   15  C   UNL     1      82.963  48.472  38.569  1.00  0.00     0.238 C 
ATOM     16  HN2 UNL     1      83.620  50.322  37.839  1.00  0.00     0.278 HD
ATOM     17  HN1 UNL     1      83.658  50.283  39.362  1.00  0.00     0.278 HD
HETATM   18  C   UNL     1      81.454  48.204  38.531  1.00  0.00     0.019 C 
HETATM   19  C   UNL     1      80.974  48.492  39.970  1.00  0.00     0.061 C 
ENDBRANCH   9  11
ENDBRANCH   7   9
BRANCH   1  20
HETATM   20  O   UNL     1      79.755  50.187  43.468  1.00  0.00    -0.357 OA
ATOM     21  HO  UNL     1      79.354  49.339  43.614  1.00  0.00     0.218 HD
ENDBRANCH   1  20
BRANCH   2  22
HETATM   22  C   UNL     1      75.349  52.770  40.632  1.00  0.00    -0.064 C 
HETATM   23  C   UNL     1      75.051  52.389  39.194  1.00  0.00     0.036 C 
HETATM   24  C   UNL     1      74.224  53.412  38.420  1.00  0.00     0.009 C 
HETATM   25  C   UNL     1      73.538  54.491  39.255  1.00  0.00    -0.014 C 
HETATM   26  C   UNL     1      73.186  53.921  40.643  1.00  0.00     0.013 C 
HETATM   27  C   UNL     1      74.538  55.612  39.587  1.00  0.00     0.005 C 
HETATM   28  C   UNL     1      74.582  53.905  41.300  1.00  0.00     0.016 C 
HETATM   29  C   UNL     1      75.185  55.247  40.915  1.00  0.00     0.009 C 
ENDBRANCH   2  22
TORSDOF 4
ENDMDL
MODEL 6
REMARK VINA RESULT:      -8.5      2.898      4.838
REMARK  4 active torsions:
REMARK  status: ('A' for Active; 'I' for Inactive)
REMARK    1  A    between atoms: C_1  and  O_2 
REMARK    2  A    between atoms: C_4  and  C_6 
REMARK    3  A    between atoms: N_10  and  C_24 
REMARK    4  A    between atoms: N_10  and  C_29 
ROOT
HETATM    1  C   UNL     1      81.405  49.563  40.805  1.00  0.00     0.109 C 
HETATM    2  C   UNL     1      78.977  50.964  42.226  1.00  0.00    -0.018 C 
HETATM    3  C   UNL     1      81.353  50.346  41.934  1.00  0.00     0.041 C 
HETATM    4  C   UNL     1      80.313  50.930  42.615  1.00  0.00     0.016 C 
HETATM    5  N   UNL     1      79.232  50.109  39.894  1.00  0.00    -0.349 N 
ATOM      6  HN  UNL     1      78.682  50.173  39.037  1.00  0.00     0.167 HD
HETATM    7  C   UNL     1      80.470  49.624  39.742  1.00  0.00     0.139 C 
HETATM    8  C   UNL     1      78.617  50.517  40.989  1.00  0.00     0.101 C 
ENDROOT
BRANCH   7   9
HETATM    9  N   UNL     1      80.795  49.139  38.492  1.00  0.00    -0.345 N 
ATOM     10  HN  UNL     1      80.244  48.390  38.073  1.00  0.00     0.167 HD
BRANCH   9  11
HETATM   11  C   UNL     1      81.890  49.683  37.797  1.00  0.00     0.019 C 
HETATM   12  C   UNL     1      83.063  48.874  37.339  1.00  0.00     0.231 C 
HETATM   13  N   UNL     1      82.899  48.899  35.867  1.00  0.00    -0.065 N 
HETATM   14  C   UNL     1      84.190  49.862  37.577  1.00  0.00     0.045 C 
HETATM   15  C   UNL     1      83.148  50.287  35.478  1.00  0.00     0.238 C 
ATOM     16  HN2 UNL     1      83.482  48.222  35.376  1.00  0.00     0.278 HD
ATOM     17  HN1 UNL     1      82.001  48.535  35.546  1.00  0.00     0.278 HD
HETATM   18  C   UNL     1      83.518  50.990  36.790  1.00  0.00     0.019 C 
HETATM   19  C   UNL     1      82.177  51.138  37.541  1.00  0.00     0.061 C 
ENDBRANCH   9  11
ENDBRANCH   7   9
BRANCH   1  20
HETATM   20  O   UNL     1      82.423  48.670  40.681  1.00  0.00    -0.357 OA
ATOM     21  HO  UNL     1      83.295  48.999  40.495  1.00  0.00     0.218 HD
ENDBRANCH   1  20
BRANCH   2  22
HETATM   22  C   UNL     1      77.941  51.477  43.161  1.00  0.00    -0.064 C 
HETATM   23  C   UNL     1      76.801  52.235  42.507  1.00  0.00     0.036 C 
HETATM   24  C   UNL     1      76.255  53.401  43.326  1.00  0.00     0.009 C 
HETATM   25  C   UNL     1      76.679  53.448  44.792  1.00  0.00    -0.014 C 
HETATM   26  C   UNL     1      76.896  52.013  45.311  1.00  0.00     0.013 C 
HETATM   27  C   UNL     1      78.080  54.072  44.913  1.00  0.00     0.005 C 
HETATM   28  C   UNL     1      78.244  51.675  44.641  1.00  0.00     0.016 C 
HETATM   29  C   UNL     1      79.080  52.928  44.845  1.00  0.00     0.009 C 
ENDBRANCH   2  22
TORSDOF 4
ENDMDL
MODEL 7
REMARK VINA RESULT:      -8.5      2.709      3.657
REMARK  4 active torsions:
REMARK  status: ('A' for Active; 'I' for Inactive)
REMARK    1  A    between atoms: C_1  and  O_2 
REMARK    2  A    between atoms: C_4  and  C_6 
REMARK    3  A    between atoms: N_10  and  C_24 
REMARK    4  A    between atoms: N_10  and  C_29 
ROOT
HETATM    1  C   UNL     1      78.855  50.385  39.886  1.00  0.00     0.109 C 
HETATM    2  C   UNL     1      76.262  52.154  39.727  1.00  0.00    -0.018 C 
HETATM    3  C   UNL     1      78.283  51.228  40.809  1.00  0.00     0.041 C 
HETATM    4  C   UNL     1      77.129  51.974  40.800  1.00  0.00     0.016 C 
HETATM    5  N   UNL     1      77.666  51.149  37.923  1.00  0.00    -0.349 N 
ATOM      6  HN  UNL     1      77.707  51.235  36.907  1.00  0.00     0.167 HD
HETATM    7  C   UNL     1      78.696  50.505  38.483  1.00  0.00     0.139 C 
HETATM    8  C   UNL     1      76.603  51.689  38.491  1.00  0.00     0.101 C 
ENDROOT
BRANCH   7   9
HETATM    9  N   UNL     1      79.600  49.916  37.622  1.00  0.00    -0.345 N 
ATOM     10  HN  UNL     1      79.411  48.991  37.236  1.00  0.00     0.167 HD
BRANCH   9  11
HETATM   11  C   UNL     1      80.781  50.598  37.278  1.00  0.00     0.019 C 
HETATM   12  C   UNL     1      81.041  51.167  35.919  1.00  0.00     0.231 C 
HETATM   13  N   UNL     1      81.000  52.625  36.183  1.00  0.00    -0.065 N 
HETATM   14  C   UNL     1      82.524  50.883  35.780  1.00  0.00     0.045 C 
HETATM   15  C   UNL     1      82.181  52.898  37.003  1.00  0.00     0.238 C 
ATOM     16  HN2 UNL     1      80.944  53.195  35.339  1.00  0.00     0.278 HD
ATOM     17  HN1 UNL     1      80.125  52.944  36.599  1.00  0.00     0.278 HD
HETATM   18  C   UNL     1      82.890  51.542  37.112  1.00  0.00     0.019 C 
HETATM   19  C   UNL     1      82.030  50.734  38.107  1.00  0.00     0.061 C 
ENDBRANCH   9  11
ENDBRANCH   7   9
BRANCH   1  20
HETATM   20  O   UNL     1      79.636  49.366  40.334  1.00  0.00    -0.357 OA
ATOM     21  HO  UNL     1      79.580  48.525  39.895  1.00  0.00     0.218 HD
ENDBRANCH   1  20
BRANCH   2  22
HETATM   22  C   UNL     1      74.960  52.843  39.928  1.00  0.00    -0.064 C 
HETATM   23  C   UNL     1      73.981  52.719  38.775  1.00  0.00     0.036 C 
HETATM   24  C   UNL     1      73.114  53.953  38.537  1.00  0.00     0.009 C 
HETATM   25  C   UNL     1      73.103  54.992  39.656  1.00  0.00    -0.014 C 
HETATM   26  C   UNL     1      73.305  54.288  41.013  1.00  0.00     0.013 C 
HETATM   27  C   UNL     1      74.345  55.893  39.548  1.00  0.00     0.005 C 
HETATM   28  C   UNL     1      74.814  53.972  40.940  1.00  0.00     0.016 C 
HETATM   29  C   UNL     1      75.431  55.251  40.397  1.00  0.00     0.009 C 
ENDBRANCH   2  22
TORSDOF 4
ENDMDL
MODEL 8
REMARK VINA RESULT:      -8.4      3.505      5.233
REMARK  4 active torsions:
REMARK  status: ('A' for Active; 'I' for Inactive)
REMARK    1  A    between atoms: C_1  and  O_2 
REMARK    2  A    between atoms: C_4  and  C_6 
REMARK    3  A    between atoms: N_10  and  C_24 
REMARK    4  A    between atoms: N_10  and  C_29 
ROOT
HETATM    1  C   UNL     1      79.306  50.625  39.602  1.00  0.00     0.109 C 
HETATM    2  C   UNL     1      79.293  51.410  42.645  1.00  0.00    -0.018 C 
HETATM    3  C   UNL     1      78.528  50.177  40.643  1.00  0.00     0.041 C 
HETATM    4  C   UNL     1      78.454  50.530  41.969  1.00  0.00     0.016 C 
HETATM    5  N   UNL     1      81.052  51.688  40.895  1.00  0.00    -0.349 N 
ATOM      6  HN  UNL     1      82.033  51.968  40.895  1.00  0.00     0.167 HD
HETATM    7  C   UNL     1      80.609  51.162  39.747  1.00  0.00     0.139 C 
HETATM    8  C   UNL     1      80.407  51.897  42.028  1.00  0.00     0.101 C 
ENDROOT
BRANCH   7   9
HETATM    9  N   UNL     1      81.477  51.199  38.674  1.00  0.00    -0.345 N 
ATOM     10  HN  UNL     1      81.550  52.040  38.103  1.00  0.00     0.167 HD
BRANCH   9  11
HETATM   11  C   UNL     1      82.260  50.070  38.374  1.00  0.00     0.019 C 
HETATM   12  C   UNL     1      82.676  49.699  36.985  1.00  0.00     0.231 C 
HETATM   13  N   UNL     1      84.137  49.944  37.024  1.00  0.00    -0.065 N 
HETATM   14  C   UNL     1      82.578  48.187  37.062  1.00  0.00     0.045 C 
HETATM   15  C   UNL     1      84.671  48.924  37.927  1.00  0.00     0.238 C 
ATOM     16  HN2 UNL     1      84.578  49.952  36.105  1.00  0.00     0.278 HD
ATOM     17  HN1 UNL     1      84.388  50.898  37.285  1.00  0.00     0.278 HD
HETATM   18  C   UNL     1      83.449  48.082  38.316  1.00  0.00     0.019 C 
HETATM   19  C   UNL     1      82.671  48.968  39.313  1.00  0.00     0.061 C 
ENDBRANCH   9  11
ENDBRANCH   7   9
BRANCH   1  20
HETATM   20  O   UNL     1      78.808  50.546  38.339  1.00  0.00    -0.357 OA
ATOM     21  HO  UNL     1      78.501  49.704  38.024  1.00  0.00     0.218 HD
ENDBRANCH   1  20
BRANCH   2  22
HETATM   22  C   UNL     1      78.971  51.827  44.035  1.00  0.00    -0.064 C 
HETATM   23  C   UNL     1      78.830  50.692  45.032  1.00  0.00     0.036 C 
HETATM   24  C   UNL     1      77.771  50.915  46.110  1.00  0.00     0.009 C 
HETATM   25  C   UNL     1      77.242  52.341  46.246  1.00  0.00    -0.014 C 
HETATM   26  C   UNL     1      78.352  53.340  45.860  1.00  0.00     0.013 C 
HETATM   27  C   UNL     1      76.160  52.604  45.185  1.00  0.00     0.005 C 
HETATM   28  C   UNL     1      78.345  53.185  44.325  1.00  0.00     0.016 C 
HETATM   29  C   UNL     1      76.867  53.173  43.964  1.00  0.00     0.009 C 
ENDBRANCH   2  22
TORSDOF 4
ENDMDL
MODEL 9
REMARK VINA RESULT:      -8.3      2.472      4.998
REMARK  4 active torsions:
REMARK  status: ('A' for Active; 'I' for Inactive)
REMARK    1  A    between atoms: C_1  and  O_2 
REMARK    2  A    between atoms: C_4  and  C_6 
REMARK    3  A    between atoms: N_10  and  C_24 
REMARK    4  A    between atoms: N_10  and  C_29 
ROOT
HETATM    1  C   UNL     1      78.943  50.571  41.574  1.00  0.00     0.109 C 
HETATM    2  C   UNL     1      76.647  51.601  39.693  1.00  0.00    -0.018 C 
HETATM    3  C   UNL     1      78.494  50.102  40.362  1.00  0.00     0.041 C 
HETATM    4  C   UNL     1      77.535  50.551  39.487  1.00  0.00     0.016 C 
HETATM    5  N   UNL     1      77.063  51.991  42.124  1.00  0.00    -0.349 N 
ATOM      6  HN  UNL     1      76.536  52.415  42.887  1.00  0.00     0.167 HD
HETATM    7  C   UNL     1      78.154  51.309  42.491  1.00  0.00     0.139 C 
HETATM    8  C   UNL     1      76.568  52.197  40.917  1.00  0.00     0.101 C 
ENDROOT
BRANCH   7   9
HETATM    9  N   UNL     1      78.511  51.385  43.823  1.00  0.00    -0.345 N 
ATOM     10  HN  UNL     1      78.951  50.587  44.281  1.00  0.00     0.167 HD
BRANCH   9  11
HETATM   11  C   UNL     1      78.264  52.567  44.544  1.00  0.00     0.019 C 
HETATM   12  C   UNL     1      76.905  52.977  45.018  1.00  0.00     0.231 C 
HETATM   13  N   UNL     1      77.035  52.832  46.487  1.00  0.00    -0.065 N 
HETATM   14  C   UNL     1      76.982  54.478  44.812  1.00  0.00     0.045 C 
HETATM   15  C   UNL     1      77.973  53.879  46.893  1.00  0.00     0.238 C 
ATOM     16  HN2 UNL     1      76.145  52.861  46.984  1.00  0.00     0.278 HD
ATOM     17  HN1 UNL     1      77.307  51.895  46.786  1.00  0.00     0.278 HD
HETATM   18  C   UNL     1      78.288  54.632  45.595  1.00  0.00     0.019 C 
HETATM   19  C   UNL     1      79.231  53.687  44.819  1.00  0.00     0.061 C 
ENDBRANCH   9  11
ENDBRANCH   7   9
BRANCH   1  20
HETATM   20  O   UNL     1      80.228  50.311  41.936  1.00  0.00    -0.357 OA
ATOM     21  HO  UNL     1      80.564  49.431  41.814  1.00  0.00     0.218 HD
ENDBRANCH   1  20
BRANCH   2  22
HETATM   22  C   UNL     1      75.790  52.082  38.576  1.00  0.00    -0.064 C 
HETATM   23  C   UNL     1      75.068  53.391  38.836  1.00  0.00     0.036 C 
HETATM   24  C   UNL     1      73.677  53.489  38.216  1.00  0.00     0.009 C 
HETATM   25  C   UNL     1      73.333  52.432  37.169  1.00  0.00    -0.014 C 
HETATM   26  C   UNL     1      74.616  52.007  36.427  1.00  0.00     0.013 C 
HETATM   27  C   UNL     1      72.889  51.132  37.861  1.00  0.00     0.005 C 
HETATM   28  C   UNL     1      75.281  51.126  37.505  1.00  0.00     0.016 C 
HETATM   29  C   UNL     1      74.138  50.284  38.049  1.00  0.00     0.009 C 
ENDBRANCH   2  22
TORSDOF 4
ENDMDL
