MODEL 1
REMARK VINA RESULT:     -11.7      0.000      0.000
REMARK  2 active torsions:
REMARK  status: ('A' for Active; 'I' for Inactive)
REMARK    1  A    between atoms: C_1  and  C_9 
REMARK    2  A    between atoms: C_12  and  C_16 
ROOT
HETATM    1  C   UNL     1      76.821  52.737  43.592  1.00  0.00    -0.024 C 
HETATM    2  C   UNL     1      77.945  51.188  45.575  1.00  0.00     0.001 C 
HETATM    3  C   UNL     1      78.133  50.803  44.231  1.00  0.00     0.013 C 
HETATM    4  C   UNL     1      78.022  51.561  41.801  1.00  0.00    -0.014 C 
HETATM    5  C   UNL     1      75.962  52.802  41.324  1.00  0.00    -0.024 C 
HETATM    6  C   UNL     1      77.097  52.091  40.873  1.00  0.00     0.025 C 
HETATM    7  C   UNL     1      77.520  52.487  45.881  1.00  0.00     0.001 C 
HETATM    8  C   UNL     1      75.793  53.027  42.690  1.00  0.00     0.024 C 
HETATM    9  C   UNL     1      77.709  51.685  43.209  1.00  0.00    -0.015 C 
HETATM   10  C   UNL     1      76.921  53.270  44.882  1.00  0.00     0.012 C 
ENDROOT
BRANCH   4  11
HETATM   11  C   UNL     1      79.302  50.945  41.354  1.00  0.00    -0.025 C 
HETATM   12  C   UNL     1      79.300  49.779  40.559  1.00  0.00     0.013 C 
HETATM   13  C   UNL     1      80.369  49.611  39.657  1.00  0.00     0.007 C 
HETATM   14  C   UNL     1      81.354  50.615  39.621  1.00  0.00    -0.062 C 
HETATM   15  C   UNL     1      81.789  51.219  38.309  1.00  0.00     0.048 C 
HETATM   16  C   UNL     1      81.623  51.289  40.829  1.00  0.00     0.007 C 
HETATM   17  C   UNL     1      80.552  51.484  41.711  1.00  0.00     0.013 C 
ENDBRANCH   4  11
BRANCH   5  18
HETATM   18  C   UNL     1      74.911  53.393  40.464  1.00  0.00    -0.026 C 
HETATM   19  C   UNL     1      75.196  53.459  39.096  1.00  0.00     0.012 C 
HETATM   20  C   UNL     1      74.392  53.065  38.033  1.00  0.00     0.001 C 
HETATM   21  C   UNL     1      73.007  53.255  38.038  1.00  0.00     0.000 C 
HETATM   22  C   UNL     1      72.275  53.788  39.060  1.00  0.00     0.000 C 
HETATM   23  C   UNL     1      72.654  54.313  40.268  1.00  0.00     0.001 C 
HETATM   24  C   UNL     1      73.794  54.018  41.009  1.00  0.00     0.012 C 
ENDBRANCH   5  18
TORSDOF 2
ENDMDL
MODEL 2
REMARK VINA RESULT:     -11.2      0.995      1.422
REMARK  2 active torsions:
REMARK  status: ('A' for Active; 'I' for Inactive)
REMARK    1  A    between atoms: C_1  and  C_9 
REMARK    2  A    between atoms: C_12  and  C_16 
ROOT
HETATM    1  C   UNL     1      76.858  52.803  44.076  1.00  0.00    -0.024 C 
HETATM    2  C   UNL     1      77.977  50.993  45.827  1.00  0.00     0.001 C 
HETATM    3  C   UNL     1      78.056  50.730  44.444  1.00  0.00     0.013 C 
HETATM    4  C   UNL     1      77.860  51.728  42.107  1.00  0.00    -0.014 C 
HETATM    5  C   UNL     1      75.874  53.150  41.885  1.00  0.00    -0.024 C 
HETATM    6  C   UNL     1      76.924  52.409  41.296  1.00  0.00     0.025 C 
HETATM    7  C   UNL     1      77.670  52.282  46.280  1.00  0.00     0.001 C 
HETATM    8  C   UNL     1      75.803  53.251  43.274  1.00  0.00     0.024 C 
HETATM    9  C   UNL     1      77.641  51.735  43.538  1.00  0.00    -0.015 C 
HETATM   10  C   UNL     1      77.074  53.199  45.400  1.00  0.00     0.012 C 
ENDROOT
BRANCH   4  11
HETATM   11  C   UNL     1      79.061  51.071  41.522  1.00  0.00    -0.025 C 
HETATM   12  C   UNL     1      78.924  50.023  40.587  1.00  0.00     0.013 C 
HETATM   13  C   UNL     1      79.937  49.886  39.618  1.00  0.00     0.007 C 
HETATM   14  C   UNL     1      81.004  50.802  39.658  1.00  0.00    -0.062 C 
HETATM   15  C   UNL     1      81.438  51.532  38.412  1.00  0.00     0.048 C 
HETATM   16  C   UNL     1      81.380  51.288  40.926  1.00  0.00     0.007 C 
HETATM   17  C   UNL     1      80.367  51.455  41.879  1.00  0.00     0.013 C 
ENDBRANCH   4  11
BRANCH   5  18
HETATM   18  C   UNL     1      74.822  53.893  41.155  1.00  0.00    -0.026 C 
HETATM   19  C   UNL     1      74.650  55.234  41.513  1.00  0.00     0.012 C 
HETATM   20  C   UNL     1      74.562  56.340  40.677  1.00  0.00     0.001 C 
HETATM   21  C   UNL     1      73.894  56.293  39.450  1.00  0.00     0.000 C 
HETATM   22  C   UNL     1      73.301  55.192  38.902  1.00  0.00     0.000 C 
HETATM   23  C   UNL     1      73.140  53.918  39.380  1.00  0.00     0.001 C 
HETATM   24  C   UNL     1      73.933  53.244  40.304  1.00  0.00     0.012 C 
ENDBRANCH   5  18
TORSDOF 2
ENDMDL
MODEL 3
REMARK VINA RESULT:     -11.0      0.905      1.117
REMARK  2 active torsions:
REMARK  status: ('A' for Active; 'I' for Inactive)
REMARK    1  A    between atoms: C_1  and  C_9 
REMARK    2  A    between atoms: C_12  and  C_16 
ROOT
HETATM    1  C   UNL     1      76.805  52.611  43.448  1.00  0.00    -0.024 C 
HETATM    2  C   UNL     1      77.775  51.149  45.573  1.00  0.00     0.001 C 
HETATM    3  C   UNL     1      78.226  50.832  44.275  1.00  0.00     0.013 C 
HETATM    4  C   UNL     1      78.420  51.645  41.868  1.00  0.00    -0.014 C 
HETATM    5  C   UNL     1      76.327  52.643  41.069  1.00  0.00    -0.024 C 
HETATM    6  C   UNL     1      77.601  52.088  40.805  1.00  0.00     0.025 C 
HETATM    7  C   UNL     1      77.147  52.377  45.818  1.00  0.00     0.001 C 
HETATM    8  C   UNL     1      75.910  52.802  42.391  1.00  0.00     0.024 C 
HETATM    9  C   UNL     1      77.869  51.687  43.206  1.00  0.00    -0.015 C 
HETATM   10  C   UNL     1      76.627  53.112  44.742  1.00  0.00     0.012 C 
ENDROOT
BRANCH   4  11
HETATM   11  C   UNL     1      79.823  51.203  41.634  1.00  0.00    -0.025 C 
HETATM   12  C   UNL     1      80.398  50.186  42.427  1.00  0.00     0.013 C 
HETATM   13  C   UNL     1      81.377  49.373  41.823  1.00  0.00     0.007 C 
HETATM   14  C   UNL     1      81.706  49.638  40.481  1.00  0.00    -0.062 C 
HETATM   15  C   UNL     1      81.735  48.526  39.463  1.00  0.00     0.048 C 
HETATM   16  C   UNL     1      81.623  50.979  40.056  1.00  0.00     0.007 C 
HETATM   17  C   UNL     1      80.627  51.778  40.634  1.00  0.00     0.013 C 
ENDBRANCH   4  11
BRANCH   5  18
HETATM   18  C   UNL     1      75.366  53.128  40.053  1.00  0.00    -0.026 C 
HETATM   19  C   UNL     1      75.751  52.982  38.717  1.00  0.00     0.012 C 
HETATM   20  C   UNL     1      75.012  52.457  37.664  1.00  0.00     0.001 C 
HETATM   21  C   UNL     1      73.639  52.685  37.533  1.00  0.00     0.000 C 
HETATM   22  C   UNL     1      72.857  53.385  38.406  1.00  0.00     0.000 C 
HETATM   23  C   UNL     1      73.167  54.072  39.550  1.00  0.00     0.001 C 
HETATM   24  C   UNL     1      74.237  53.858  40.413  1.00  0.00     0.012 C 
ENDBRANCH   5  18
TORSDOF 2
ENDMDL
MODEL 4
REMARK VINA RESULT:     -10.8      2.570      6.823
REMARK  2 active torsions:
REMARK  status: ('A' for Active; 'I' for Inactive)
REMARK    1  A    between atoms: C_1  and  C_9 
REMARK    2  A    between atoms: C_12  and  C_16 
ROOT
HETATM    1  C   UNL     1      75.087  55.716  42.090  1.00  0.00    -0.024 C 
HETATM    2  C   UNL     1      74.485  57.605  40.176  1.00  0.00     0.001 C 
HETATM    3  C   UNL     1      74.684  56.271  39.766  1.00  0.00     0.013 C 
HETATM    4  C   UNL     1      74.804  53.842  40.527  1.00  0.00    -0.014 C 
HETATM    5  C   UNL     1      76.151  53.587  42.561  1.00  0.00    -0.024 C 
HETATM    6  C   UNL     1      75.525  53.022  41.425  1.00  0.00     0.025 C 
HETATM    7  C   UNL     1      74.243  57.897  41.525  1.00  0.00     0.001 C 
HETATM    8  C   UNL     1      76.002  54.949  42.819  1.00  0.00     0.024 C 
HETATM    9  C   UNL     1      74.820  55.271  40.759  1.00  0.00    -0.015 C 
HETATM   10  C   UNL     1      74.574  56.950  42.505  1.00  0.00     0.012 C 
ENDROOT
BRANCH   4  11
HETATM   11  C   UNL     1      74.008  53.257  39.413  1.00  0.00    -0.025 C 
HETATM   12  C   UNL     1      74.630  52.889  38.201  1.00  0.00     0.013 C 
HETATM   13  C   UNL     1      74.065  51.815  37.486  1.00  0.00     0.007 C 
HETATM   14  C   UNL     1      72.927  51.195  38.034  1.00  0.00    -0.062 C 
HETATM   15  C   UNL     1      72.862  49.695  38.176  1.00  0.00     0.048 C 
HETATM   16  C   UNL     1      72.052  52.011  38.778  1.00  0.00     0.007 C 
HETATM   17  C   UNL     1      72.619  53.060  39.515  1.00  0.00     0.013 C 
ENDBRANCH   4  11
BRANCH   5  18
HETATM   18  C   UNL     1      76.947  52.849  43.569  1.00  0.00    -0.026 C 
HETATM   19  C   UNL     1      76.979  53.398  44.854  1.00  0.00     0.012 C 
HETATM   20  C   UNL     1      76.763  52.754  46.067  1.00  0.00     0.001 C 
HETATM   21  C   UNL     1      77.217  51.454  46.309  1.00  0.00     0.000 C 
HETATM   22  C   UNL     1      77.864  50.652  45.414  1.00  0.00     0.000 C 
HETATM   23  C   UNL     1      78.286  50.882  44.131  1.00  0.00     0.001 C 
HETATM   24  C   UNL     1      77.765  51.783  43.207  1.00  0.00     0.012 C 
ENDBRANCH   5  18
TORSDOF 2
ENDMDL
MODEL 5
REMARK VINA RESULT:     -10.5      2.260      6.266
REMARK  2 active torsions:
REMARK  status: ('A' for Active; 'I' for Inactive)
REMARK    1  A    between atoms: C_1  and  C_9 
REMARK    2  A    between atoms: C_12  and  C_16 
ROOT
HETATM    1  C   UNL     1      74.566  53.571  41.096  1.00  0.00    -0.024 C 
HETATM    2  C   UNL     1      73.484  54.980  38.989  1.00  0.00     0.001 C 
HETATM    3  C   UNL     1      74.569  54.116  38.735  1.00  0.00     0.013 C 
HETATM    4  C   UNL     1      75.950  52.169  39.627  1.00  0.00    -0.014 C 
HETATM    5  C   UNL     1      76.536  52.470  41.989  1.00  0.00    -0.024 C 
HETATM    6  C   UNL     1      76.739  51.824  40.748  1.00  0.00     0.025 C 
HETATM    7  C   UNL     1      72.752  54.858  40.178  1.00  0.00     0.001 C 
HETATM    8  C   UNL     1      75.512  53.410  42.113  1.00  0.00     0.024 C 
HETATM    9  C   UNL     1      75.013  53.263  39.774  1.00  0.00    -0.015 C 
HETATM   10  C   UNL     1      73.311  54.166  41.263  1.00  0.00     0.012 C 
ENDROOT
BRANCH   4  11
HETATM   11  C   UNL     1      76.033  51.401  38.354  1.00  0.00    -0.025 C 
HETATM   12  C   UNL     1      75.376  50.159  38.219  1.00  0.00     0.013 C 
HETATM   13  C   UNL     1      74.927  49.802  36.933  1.00  0.00     0.007 C 
HETATM   14  C   UNL     1      75.170  50.709  35.884  1.00  0.00    -0.062 C 
HETATM   15  C   UNL     1      74.058  51.125  34.955  1.00  0.00     0.048 C 
HETATM   16  C   UNL     1      76.342  51.485  35.971  1.00  0.00     0.007 C 
HETATM   17  C   UNL     1      76.770  51.867  37.250  1.00  0.00     0.013 C 
ENDBRANCH   4  11
BRANCH   5  18
HETATM   18  C   UNL     1      77.299  52.218  43.233  1.00  0.00    -0.026 C 
HETATM   19  C   UNL     1      76.895  52.935  44.363  1.00  0.00     0.012 C 
HETATM   20  C   UNL     1      76.650  52.452  45.642  1.00  0.00     0.001 C 
HETATM   21  C   UNL     1      77.427  51.443  46.218  1.00  0.00     0.000 C 
HETATM   22  C   UNL     1      78.460  50.785  45.615  1.00  0.00     0.000 C 
HETATM   23  C   UNL     1      79.042  50.947  44.384  1.00  0.00     0.001 C 
HETATM   24  C   UNL     1      78.465  51.459  43.226  1.00  0.00     0.012 C 
ENDBRANCH   5  18
TORSDOF 2
ENDMDL
MODEL 6
REMARK VINA RESULT:     -10.4      1.000      4.549
REMARK  2 active torsions:
REMARK  status: ('A' for Active; 'I' for Inactive)
REMARK    1  A    between atoms: C_1  and  C_9 
REMARK    2  A    between atoms: C_12  and  C_16 
ROOT
HETATM    1  C   UNL     1      77.638  51.022  40.172  1.00  0.00    -0.024 C 
HETATM    2  C   UNL     1      80.295  50.425  40.593  1.00  0.00     0.001 C 
HETATM    3  C   UNL     1      79.649  51.298  41.493  1.00  0.00     0.013 C 
HETATM    4  C   UNL     1      77.400  52.137  42.348  1.00  0.00    -0.014 C 
HETATM    5  C   UNL     1      75.850  52.628  40.512  1.00  0.00    -0.024 C 
HETATM    6  C   UNL     1      76.222  52.754  41.870  1.00  0.00     0.025 C 
HETATM    7  C   UNL     1      79.539  49.613  39.738  1.00  0.00     0.001 C 
HETATM    8  C   UNL     1      76.625  51.840  39.661  1.00  0.00     0.024 C 
HETATM    9  C   UNL     1      78.248  51.469  41.384  1.00  0.00    -0.015 C 
HETATM   10  C   UNL     1      78.193  49.929  39.498  1.00  0.00     0.012 C 
ENDROOT
BRANCH   4  11
HETATM   11  C   UNL     1      77.734  52.122  43.799  1.00  0.00    -0.025 C 
HETATM   12  C   UNL     1      77.368  53.201  44.632  1.00  0.00     0.013 C 
HETATM   13  C   UNL     1      77.097  52.910  45.983  1.00  0.00     0.007 C 
HETATM   14  C   UNL     1      77.213  51.570  46.397  1.00  0.00    -0.062 C 
HETATM   15  C   UNL     1      76.106  50.907  47.176  1.00  0.00     0.048 C 
HETATM   16  C   UNL     1      78.184  50.784  45.745  1.00  0.00     0.007 C 
HETATM   17  C   UNL     1      78.430  51.053  44.392  1.00  0.00     0.013 C 
ENDBRANCH   4  11
BRANCH   5  18
HETATM   18  C   UNL     1      74.655  53.233  39.880  1.00  0.00    -0.026 C 
HETATM   19  C   UNL     1      74.646  53.269  38.482  1.00  0.00     0.012 C 
HETATM   20  C   UNL     1      73.627  52.880  37.622  1.00  0.00     0.001 C 
HETATM   21  C   UNL     1      72.279  53.108  37.914  1.00  0.00     0.000 C 
HETATM   22  C   UNL     1      71.793  53.678  39.056  1.00  0.00     0.000 C 
HETATM   23  C   UNL     1      72.430  54.212  40.145  1.00  0.00     0.001 C 
HETATM   24  C   UNL     1      73.694  53.897  40.635  1.00  0.00     0.012 C 
ENDBRANCH   5  18
TORSDOF 2
ENDMDL
MODEL 7
REMARK VINA RESULT:     -10.4      1.367      6.867
REMARK  2 active torsions:
REMARK  status: ('A' for Active; 'I' for Inactive)
REMARK    1  A    between atoms: C_1  and  C_9 
REMARK    2  A    between atoms: C_12  and  C_16 
ROOT
HETATM    1  C   UNL     1      78.048  51.556  40.999  1.00  0.00    -0.024 C 
HETATM    2  C   UNL     1      77.492  50.335  38.592  1.00  0.00     0.001 C 
HETATM    3  C   UNL     1      76.449  51.003  39.266  1.00  0.00     0.013 C 
HETATM    4  C   UNL     1      75.873  52.695  41.081  1.00  0.00    -0.014 C 
HETATM    5  C   UNL     1      77.168  52.315  43.129  1.00  0.00    -0.024 C 
HETATM    6  C   UNL     1      76.071  52.910  42.464  1.00  0.00     0.025 C 
HETATM    7  C   UNL     1      78.826  50.586  38.939  1.00  0.00     0.001 C 
HETATM    8  C   UNL     1      78.086  51.562  42.397  1.00  0.00     0.024 C 
HETATM    9  C   UNL     1      76.765  51.775  40.408  1.00  0.00    -0.015 C 
HETATM   10  C   UNL     1      79.116  51.182  40.176  1.00  0.00     0.012 C 
ENDROOT
BRANCH   4  11
HETATM   11  C   UNL     1      74.822  53.431  40.325  1.00  0.00    -0.025 C 
HETATM   12  C   UNL     1      74.856  53.485  38.915  1.00  0.00     0.013 C 
HETATM   13  C   UNL     1      73.622  53.578  38.243  1.00  0.00     0.007 C 
HETATM   14  C   UNL     1      72.454  53.611  39.027  1.00  0.00    -0.062 C 
HETATM   15  C   UNL     1      71.298  52.692  38.722  1.00  0.00     0.048 C 
HETATM   16  C   UNL     1      72.552  54.224  40.292  1.00  0.00     0.007 C 
HETATM   17  C   UNL     1      73.770  54.102  40.974  1.00  0.00     0.013 C 
ENDBRANCH   4  11
BRANCH   5  18
HETATM   18  C   UNL     1      77.481  52.443  44.571  1.00  0.00    -0.026 C 
HETATM   19  C   UNL     1      78.564  53.266  44.897  1.00  0.00     0.012 C 
HETATM   20  C   UNL     1      78.617  54.272  45.854  1.00  0.00     0.001 C 
HETATM   21  C   UNL     1      77.973  54.159  47.089  1.00  0.00     0.000 C 
HETATM   22  C   UNL     1      77.195  53.112  47.494  1.00  0.00     0.000 C 
HETATM   23  C   UNL     1      76.887  51.924  46.885  1.00  0.00     0.001 C 
HETATM   24  C   UNL     1      76.857  51.643  45.523  1.00  0.00     0.012 C 
ENDBRANCH   5  18
TORSDOF 2
ENDMDL
MODEL 8
REMARK VINA RESULT:     -10.4      2.003      6.950
REMARK  2 active torsions:
REMARK  status: ('A' for Active; 'I' for Inactive)
REMARK    1  A    between atoms: C_1  and  C_9 
REMARK    2  A    between atoms: C_12  and  C_16 
ROOT
HETATM    1  C   UNL     1      75.027  55.661  41.913  1.00  0.00    -0.024 C 
HETATM    2  C   UNL     1      74.412  57.700  40.164  1.00  0.00     0.001 C 
HETATM    3  C   UNL     1      74.444  56.378  39.674  1.00  0.00     0.013 C 
HETATM    4  C   UNL     1      74.415  53.909  40.303  1.00  0.00    -0.014 C 
HETATM    5  C   UNL     1      75.931  53.423  42.169  1.00  0.00    -0.024 C 
HETATM    6  C   UNL     1      75.144  52.981  41.081  1.00  0.00     0.025 C 
HETATM    7  C   UNL     1      74.336  57.936  41.543  1.00  0.00     0.001 C 
HETATM    8  C   UNL     1      75.936  54.777  42.505  1.00  0.00     0.024 C 
HETATM    9  C   UNL     1      74.587  55.316  40.598  1.00  0.00    -0.015 C 
HETATM   10  C   UNL     1      74.675  56.909  42.438  1.00  0.00     0.012 C 
ENDROOT
BRANCH   4  11
HETATM   11  C   UNL     1      73.459  53.460  39.254  1.00  0.00    -0.025 C 
HETATM   12  C   UNL     1      73.924  53.053  37.985  1.00  0.00     0.013 C 
HETATM   13  C   UNL     1      73.170  52.078  37.303  1.00  0.00     0.007 C 
HETATM   14  C   UNL     1      72.014  51.588  37.938  1.00  0.00    -0.062 C 
HETATM   15  C   UNL     1      71.773  50.104  38.058  1.00  0.00     0.048 C 
HETATM   16  C   UNL     1      71.315  52.484  38.771  1.00  0.00     0.007 C 
HETATM   17  C   UNL     1      72.070  53.433  39.474  1.00  0.00     0.013 C 
ENDBRANCH   4  11
BRANCH   5  18
HETATM   18  C   UNL     1      76.752  52.564  43.051  1.00  0.00    -0.026 C 
HETATM   19  C   UNL     1      77.443  51.519  42.429  1.00  0.00     0.012 C 
HETATM   20  C   UNL     1      78.780  51.170  42.572  1.00  0.00     0.001 C 
HETATM   21  C   UNL     1      79.440  51.244  43.802  1.00  0.00     0.000 C 
HETATM   22  C   UNL     1      78.902  51.694  44.974  1.00  0.00     0.000 C 
HETATM   23  C   UNL     1      77.637  52.116  45.287  1.00  0.00     0.001 C 
HETATM   24  C   UNL     1      76.686  52.673  44.437  1.00  0.00     0.012 C 
ENDBRANCH   5  18
TORSDOF 2
ENDMDL
MODEL 9
REMARK VINA RESULT:     -10.3      1.301      6.310
REMARK  2 active torsions:
REMARK  status: ('A' for Active; 'I' for Inactive)
REMARK    1  A    between atoms: C_1  and  C_9 
REMARK    2  A    between atoms: C_12  and  C_16 
ROOT
HETATM    1  C   UNL     1      78.070  51.275  43.912  1.00  0.00    -0.024 C 
HETATM    2  C   UNL     1      76.871  53.162  45.522  1.00  0.00     0.001 C 
HETATM    3  C   UNL     1      76.837  53.350  44.125  1.00  0.00     0.013 C 
HETATM    4  C   UNL     1      77.127  52.231  41.854  1.00  0.00    -0.014 C 
HETATM    5  C   UNL     1      79.135  50.824  41.778  1.00  0.00    -0.024 C 
HETATM    6  C   UNL     1      78.098  51.519  41.113  1.00  0.00     0.025 C 
HETATM    7  C   UNL     1      77.175  51.903  46.055  1.00  0.00     0.001 C 
HETATM    8  C   UNL     1      79.157  50.798  43.173  1.00  0.00     0.024 C 
HETATM    9  C   UNL     1      77.296  52.303  43.290  1.00  0.00    -0.015 C 
HETATM   10  C   UNL     1      77.811  50.948  45.247  1.00  0.00     0.012 C 
ENDROOT
BRANCH   4  11
HETATM   11  C   UNL     1      75.940  52.840  41.193  1.00  0.00    -0.025 C 
HETATM   12  C   UNL     1      74.892  53.389  41.961  1.00  0.00     0.013 C 
HETATM   13  C   UNL     1      74.177  54.466  41.403  1.00  0.00     0.007 C 
HETATM   14  C   UNL     1      74.562  54.910  40.124  1.00  0.00    -0.062 C 
HETATM   15  C   UNL     1      74.811  56.373  39.860  1.00  0.00     0.048 C 
HETATM   16  C   UNL     1      75.071  53.938  39.239  1.00  0.00     0.007 C 
HETATM   17  C   UNL     1      75.809  52.884  39.793  1.00  0.00     0.013 C 
ENDBRANCH   4  11
BRANCH   5  18
HETATM   18  C   UNL     1      80.219  50.055  41.126  1.00  0.00    -0.026 C 
HETATM   19  C   UNL     1      79.936  49.538  39.859  1.00  0.00     0.012 C 
HETATM   20  C   UNL     1      80.708  49.620  38.707  1.00  0.00     0.001 C 
HETATM   21  C   UNL     1      82.102  49.527  38.738  1.00  0.00     0.000 C 
HETATM   22  C   UNL     1      82.871  49.396  39.859  1.00  0.00     0.000 C 
HETATM   23  C   UNL     1      82.533  49.263  41.180  1.00  0.00     0.001 C 
HETATM   24  C   UNL     1      81.378  49.709  41.816  1.00  0.00     0.012 C 
ENDBRANCH   5  18
TORSDOF 2
ENDMDL
