MODEL 1
REMARK VINA RESULT:      -9.7      0.000      0.000
REMARK  3 active torsions:
REMARK  status: ('A' for Active; 'I' for Inactive)
REMARK    1  A    between atoms: C_1  and  C_28 
REMARK    2  A    between atoms: C_4  and  O_6 
REMARK    3  A    between atoms: O_17  and  C_33 
ROOT
HETATM    1  C   UNL     1       1.047  69.110  73.739  1.00  0.00     0.108 C 
HETATM    2  C   UNL     1      -3.405  67.458  67.184  1.00  0.00    -0.016 C 
HETATM    3  C   UNL     1      -1.355  68.831  66.965  1.00  0.00     0.013 C 
HETATM    4  C   UNL     1      -5.556  68.082  66.542  1.00  0.00     0.106 C 
HETATM    5  C   UNL     1       1.137  68.086  72.773  1.00  0.00     0.171 C 
HETATM    6  C   UNL     1       1.300  70.741  70.709  1.00  0.00     0.045 C 
HETATM    7  C   UNL     1       0.175  69.793  71.130  1.00  0.00     0.078 C 
HETATM    8  C   UNL     1       1.407  72.209  68.589  1.00  0.00     0.089 C 
HETATM    9  O   UNL     1       0.298  72.936  66.563  1.00  0.00    -0.293 OA
HETATM   10  C   UNL     1       0.251  70.202  73.523  1.00  0.00     0.158 C 
HETATM   11  O   UNL     1      -0.476  70.337  72.300  1.00  0.00    -0.350 OA
HETATM   12  C   UNL     1      -1.010  70.182  66.899  1.00  0.00     0.012 C 
HETATM   13  C   UNL     1      -4.581  66.024  65.660  1.00  0.00     0.040 C 
HETATM   14  C   UNL     1      -2.197  69.281  70.218  1.00  0.00     0.043 C 
HETATM   15  C   UNL     1      -2.973  68.823  69.007  1.00  0.00    -0.064 C 
HETATM   16  C   UNL     1      -0.681  71.102  69.286  1.00  0.00     0.034 C 
HETATM   17  C   UNL     1       0.731  68.396  71.359  1.00  0.00     0.123 C 
HETATM   18  C   UNL     1      -2.390  68.263  67.724  1.00  0.00    -0.023 C 
HETATM   19  C   UNL     1      -4.635  67.991  67.589  1.00  0.00    -0.007 C 
HETATM   20  C   UNL     1       0.611  71.733  69.788  1.00  0.00     0.005 C 
HETATM   21  C   UNL     1      -3.412  66.311  66.381  1.00  0.00     0.016 C 
HETATM   22  C   UNL     1      -0.513  71.082  67.795  1.00  0.00    -0.007 C 
HETATM   23  C   UNL     1      -0.764  69.719  69.921  1.00  0.00     0.034 C 
HETATM   24  C   UNL     1       0.457  72.050  67.432  1.00  0.00     0.156 C 
HETATM   25  C   UNL     1      -4.473  68.673  68.911  1.00  0.00     0.077 C 
HETATM   26  C   UNL     1      -5.638  66.953  65.703  1.00  0.00     0.099 C 
HETATM   27  O   UNL     1       1.419  66.866  73.064  1.00  0.00    -0.292 OA
ENDROOT
BRANCH   1  28
HETATM   28  C   UNL     1       1.761  69.019  75.055  1.00  0.00     0.215 C 
HETATM   29  O   UNL     1       3.001  68.809  75.062  1.00  0.00    -0.644 OA
HETATM   30  O   UNL     1       1.093  69.180  76.105  1.00  0.00    -0.644 OA
ENDBRANCH   1  28
BRANCH   4  31
HETATM   31  O   UNL     1      -6.091  69.257  66.108  1.00  0.00    -0.357 OA
ATOM     32  HO  UNL     1      -5.834  70.108  66.444  1.00  0.00     0.217 HD
ENDBRANCH   4  31
BRANCH  26  33
HETATM   33  O   UNL     1      -6.756  66.798  64.940  1.00  0.00    -0.358 OA
ATOM     34  HO  UNL     1      -7.213  67.578  64.650  1.00  0.00     0.217 HD
ENDBRANCH  26  33
TORSDOF 3
ENDMDL
MODEL 2
REMARK VINA RESULT:      -9.0      3.320      7.014
REMARK  3 active torsions:
REMARK  status: ('A' for Active; 'I' for Inactive)
REMARK    1  A    between atoms: C_1  and  C_28 
REMARK    2  A    between atoms: C_4  and  O_6 
REMARK    3  A    between atoms: O_17  and  C_33 
ROOT
HETATM    1  C   UNL     1      -1.516  68.906  68.346  1.00  0.00     0.108 C 
HETATM    2  C   UNL     1      -9.478  68.412  66.974  1.00  0.00    -0.016 C 
HETATM    3  C   UNL     1      -8.053  66.405  66.691  1.00  0.00     0.013 C 
HETATM    4  C   UNL     1     -10.859  69.360  65.356  1.00  0.00     0.106 C 
HETATM    5  C   UNL     1      -2.593  68.529  69.175  1.00  0.00     0.171 C 
HETATM    6  C   UNL     1      -3.082  66.325  66.678  1.00  0.00     0.045 C 
HETATM    7  C   UNL     1      -3.708  67.674  67.039  1.00  0.00     0.078 C 
HETATM    8  C   UNL     1      -4.092  64.473  65.190  1.00  0.00     0.089 C 
HETATM    9  O   UNL     1      -5.947  63.767  63.803  1.00  0.00    -0.293 OA
HETATM   10  C   UNL     1      -1.686  69.019  66.993  1.00  0.00     0.158 C 
HETATM   11  O   UNL     1      -2.950  68.723  66.396  1.00  0.00    -0.350 OA
HETATM   12  C   UNL     1      -7.414  65.721  65.656  1.00  0.00     0.012 C 
HETATM   13  C   UNL     1     -11.798  68.705  67.513  1.00  0.00     0.040 C 
HETATM   14  C   UNL     1      -5.840  68.941  66.285  1.00  0.00     0.043 C 
HETATM   15  C   UNL     1      -7.344  68.860  66.187  1.00  0.00    -0.064 C 
HETATM   16  C   UNL     1      -5.071  66.732  65.277  1.00  0.00     0.034 C 
HETATM   17  C   UNL     1      -3.769  67.830  68.551  1.00  0.00     0.123 C 
HETATM   18  C   UNL     1      -8.230  67.794  66.799  1.00  0.00    -0.023 C 
HETATM   19  C   UNL     1      -9.612  69.392  65.984  1.00  0.00    -0.007 C 
HETATM   20  C   UNL     1      -3.773  65.943  65.380  1.00  0.00     0.005 C 
HETATM   21  C   UNL     1     -10.527  68.243  67.886  1.00  0.00     0.016 C 
HETATM   22  C   UNL     1      -6.129  65.672  65.199  1.00  0.00    -0.007 C 
HETATM   23  C   UNL     1      -5.151  67.600  66.528  1.00  0.00     0.034 C 
HETATM   24  C   UNL     1      -5.534  64.464  64.756  1.00  0.00     0.156 C 
HETATM   25  C   UNL     1      -8.260  69.916  65.613  1.00  0.00     0.077 C 
HETATM   26  C   UNL     1     -11.969  69.216  66.212  1.00  0.00     0.099 C 
HETATM   27  O   UNL     1      -2.683  68.869  70.412  1.00  0.00    -0.292 OA
ENDROOT
BRANCH   1  28
HETATM   28  C   UNL     1      -0.171  69.258  68.910  1.00  0.00     0.215 C 
HETATM   29  O   UNL     1       0.253  68.627  69.911  1.00  0.00    -0.644 OA
HETATM   30  O   UNL     1       0.494  70.158  68.342  1.00  0.00    -0.644 OA
ENDBRANCH   1  28
BRANCH   4  31
HETATM   31  O   UNL     1     -11.028  69.124  64.025  1.00  0.00    -0.357 OA
ATOM     32  HO  UNL     1     -11.800  68.708  63.658  1.00  0.00     0.217 HD
ENDBRANCH   4  31
BRANCH  26  33
HETATM   33  O   UNL     1     -13.196  69.577  65.742  1.00  0.00    -0.358 OA
ATOM     34  HO  UNL     1     -13.321  70.474  65.458  1.00  0.00     0.217 HD
ENDBRANCH  26  33
TORSDOF 3
ENDMDL
MODEL 3
REMARK VINA RESULT:      -8.9      1.535      7.928
REMARK  3 active torsions:
REMARK  status: ('A' for Active; 'I' for Inactive)
REMARK    1  A    between atoms: C_1  and  C_28 
REMARK    2  A    between atoms: C_4  and  O_6 
REMARK    3  A    between atoms: O_17  and  C_33 
ROOT
HETATM    1  C   UNL     1      -4.028  67.110  67.041  1.00  0.00     0.108 C 
HETATM    2  C   UNL     1       0.224  69.625  73.453  1.00  0.00    -0.016 C 
HETATM    3  C   UNL     1       0.018  71.086  71.463  1.00  0.00     0.013 C 
HETATM    4  C   UNL     1       2.210  68.881  74.416  1.00  0.00     0.106 C 
HETATM    5  C   UNL     1      -4.385  67.891  68.160  1.00  0.00     0.171 C 
HETATM    6  C   UNL     1      -1.818  69.759  67.038  1.00  0.00     0.045 C 
HETATM    7  C   UNL     1      -1.962  68.708  68.140  1.00  0.00     0.078 C 
HETATM    8  C   UNL     1      -0.006  71.585  66.834  1.00  0.00     0.089 C 
HETATM    9  O   UNL     1       1.993  72.578  67.774  1.00  0.00    -0.293 OA
HETATM   10  C   UNL     1      -2.713  66.856  66.761  1.00  0.00     0.158 C 
HETATM   11  O   UNL     1      -1.679  67.407  67.579  1.00  0.00    -0.350 OA
HETATM   12  C   UNL     1       0.760  71.405  70.325  1.00  0.00     0.012 C 
HETATM   13  C   UNL     1       0.580  70.079  75.783  1.00  0.00     0.040 C 
HETATM   14  C   UNL     1      -0.507  67.998  70.165  1.00  0.00     0.043 C 
HETATM   15  C   UNL     1       0.146  68.484  71.436  1.00  0.00    -0.064 C 
HETATM   16  C   UNL     1       0.209  69.731  68.442  1.00  0.00     0.034 C 
HETATM   17  C   UNL     1      -3.346  68.795  68.764  1.00  0.00     0.123 C 
HETATM   18  C   UNL     1      -0.059  69.834  72.094  1.00  0.00    -0.023 C 
HETATM   19  C   UNL     1       1.163  68.590  73.539  1.00  0.00    -0.007 C 
HETATM   20  C   UNL     1      -0.346  70.129  67.080  1.00  0.00     0.005 C 
HETATM   21  C   UNL     1      -0.225  70.212  74.642  1.00  0.00     0.016 C 
HETATM   22  C   UNL     1       0.707  71.024  69.016  1.00  0.00    -0.007 C 
HETATM   23  C   UNL     1      -0.948  69.111  69.218  1.00  0.00     0.034 C 
HETATM   24  C   UNL     1       0.934  71.938  67.957  1.00  0.00     0.156 C 
HETATM   25  C   UNL     1       0.987  67.658  72.381  1.00  0.00     0.077 C 
HETATM   26  C   UNL     1       1.834  69.454  75.647  1.00  0.00     0.099 C 
HETATM   27  O   UNL     1      -5.509  67.772  68.773  1.00  0.00    -0.292 OA
ENDROOT
BRANCH   1  28
HETATM   28  C   UNL     1      -5.063  66.479  66.157  1.00  0.00     0.215 C 
HETATM   29  O   UNL     1      -5.205  65.230  66.182  1.00  0.00    -0.644 OA
HETATM   30  O   UNL     1      -5.767  67.229  65.440  1.00  0.00    -0.644 OA
ENDBRANCH   1  28
BRANCH   4  31
HETATM   31  O   UNL     1       3.515  68.961  74.032  1.00  0.00    -0.357 OA
ATOM     32  HO  UNL     1       4.247  68.861  74.630  1.00  0.00     0.217 HD
ENDBRANCH   4  31
BRANCH  26  33
HETATM   33  O   UNL     1       2.716  69.390  76.683  1.00  0.00    -0.358 OA
ATOM     34  HO  UNL     1       3.640  69.306  76.482  1.00  0.00     0.217 HD
ENDBRANCH  26  33
TORSDOF 3
ENDMDL
MODEL 4
REMARK VINA RESULT:      -8.7      1.310      1.527
REMARK  3 active torsions:
REMARK  status: ('A' for Active; 'I' for Inactive)
REMARK    1  A    between atoms: C_1  and  C_28 
REMARK    2  A    between atoms: C_4  and  O_6 
REMARK    3  A    between atoms: O_17  and  C_33 
ROOT
HETATM    1  C   UNL     1       0.252  70.499  74.603  1.00  0.00     0.108 C 
HETATM    2  C   UNL     1      -2.873  67.865  67.616  1.00  0.00    -0.016 C 
HETATM    3  C   UNL     1      -1.240  69.728  67.609  1.00  0.00     0.013 C 
HETATM    4  C   UNL     1      -5.029  67.918  66.736  1.00  0.00     0.106 C 
HETATM    5  C   UNL     1       0.711  69.552  73.664  1.00  0.00     0.171 C 
HETATM    6  C   UNL     1       0.400  72.195  71.602  1.00  0.00     0.045 C 
HETATM    7  C   UNL     1      -0.478  70.979  71.907  1.00  0.00     0.078 C 
HETATM    8  C   UNL     1       0.350  73.678  69.490  1.00  0.00     0.089 C 
HETATM    9  O   UNL     1      -0.682  74.128  67.347  1.00  0.00    -0.293 OA
HETATM   10  C   UNL     1      -0.773  71.350  74.289  1.00  0.00     0.158 C 
HETATM   11  O   UNL     1      -1.372  71.313  72.992  1.00  0.00    -0.350 OA
HETATM   12  C   UNL     1      -1.255  71.123  67.567  1.00  0.00     0.012 C 
HETATM   13  C   UNL     1      -3.460  66.202  65.988  1.00  0.00     0.040 C 
HETATM   14  C   UNL     1      -2.520  69.883  70.745  1.00  0.00     0.043 C 
HETATM   15  C   UNL     1      -3.013  69.262  69.461  1.00  0.00    -0.064 C 
HETATM   16  C   UNL     1      -1.440  72.053  69.965  1.00  0.00     0.034 C 
HETATM   17  C   UNL     1       0.395  69.771  72.210  1.00  0.00     0.123 C 
HETATM   18  C   UNL     1      -2.168  68.896  68.256  1.00  0.00    -0.023 C 
HETATM   19  C   UNL     1      -4.235  68.051  67.878  1.00  0.00    -0.007 C 
HETATM   20  C   UNL     1      -0.419  72.989  70.600  1.00  0.00     0.005 C 
HETATM   21  C   UNL     1      -2.493  66.770  66.830  1.00  0.00     0.016 C 
HETATM   22  C   UNL     1      -1.111  72.105  68.502  1.00  0.00    -0.007 C 
HETATM   23  C   UNL     1      -1.228  70.685  70.602  1.00  0.00     0.034 C 
HETATM   24  C   UNL     1      -0.393  73.298  68.237  1.00  0.00     0.156 C 
HETATM   25  C   UNL     1      -4.402  68.728  69.202  1.00  0.00     0.077 C 
HETATM   26  C   UNL     1      -4.721  66.822  65.904  1.00  0.00     0.099 C 
HETATM   27  O   UNL     1       1.268  68.442  73.998  1.00  0.00    -0.292 OA
ENDROOT
BRANCH   1  28
HETATM   28  C   UNL     1       0.818  70.573  75.990  1.00  0.00     0.215 C 
HETATM   29  O   UNL     1       0.299  69.874  76.897  1.00  0.00    -0.644 OA
HETATM   30  O   UNL     1       1.808  71.317  76.188  1.00  0.00    -0.644 OA
ENDBRANCH   1  28
BRANCH   4  31
HETATM   31  O   UNL     1      -5.802  68.920  66.233  1.00  0.00    -0.357 OA
ATOM     32  HO  UNL     1      -5.639  69.342  65.396  1.00  0.00     0.217 HD
ENDBRANCH   4  31
BRANCH  26  33
HETATM   33  O   UNL     1      -5.671  66.395  65.025  1.00  0.00    -0.358 OA
ATOM     34  HO  UNL     1      -6.554  66.731  65.120  1.00  0.00     0.217 HD
ENDBRANCH  26  33
TORSDOF 3
ENDMDL
MODEL 5
REMARK VINA RESULT:      -8.7      1.926      5.503
REMARK  3 active torsions:
REMARK  status: ('A' for Active; 'I' for Inactive)
REMARK    1  A    between atoms: C_1  and  C_28 
REMARK    2  A    between atoms: C_4  and  O_6 
REMARK    3  A    between atoms: O_17  and  C_33 
ROOT
HETATM    1  C   UNL     1       1.054  74.250  67.303  1.00  0.00     0.108 C 
HETATM    2  C   UNL     1      -4.384  68.303  68.060  1.00  0.00    -0.016 C 
HETATM    3  C   UNL     1      -2.887  68.850  69.957  1.00  0.00     0.013 C 
HETATM    4  C   UNL     1      -4.599  66.224  67.030  1.00  0.00     0.106 C 
HETATM    5  C   UNL     1      -0.261  74.236  67.812  1.00  0.00     0.171 C 
HETATM    6  C   UNL     1       1.070  71.856  69.787  1.00  0.00     0.045 C 
HETATM    7  C   UNL     1       0.224  71.825  68.512  1.00  0.00     0.078 C 
HETATM    8  C   UNL     1       1.345  69.977  71.535  1.00  0.00     0.089 C 
HETATM    9  O   UNL     1       0.779  67.718  72.196  1.00  0.00    -0.293 OA
HETATM   10  C   UNL     1       1.723  73.079  67.070  1.00  0.00     0.158 C 
HETATM   11  O   UNL     1       1.109  71.823  67.370  1.00  0.00    -0.350 OA
HETATM   12  C   UNL     1      -1.691  68.386  70.505  1.00  0.00     0.012 C 
HETATM   13  C   UNL     1      -6.576  67.334  67.936  1.00  0.00     0.040 C 
HETATM   14  C   UNL     1      -1.137  69.990  67.286  1.00  0.00     0.043 C 
HETATM   15  C   UNL     1      -2.262  68.995  67.432  1.00  0.00    -0.064 C 
HETATM   16  C   UNL     1       0.295  69.556  69.347  1.00  0.00     0.034 C 
HETATM   17  C   UNL     1      -0.749  72.994  68.505  1.00  0.00     0.123 C 
HETATM   18  C   UNL     1      -3.229  68.893  68.596  1.00  0.00    -0.023 C 
HETATM   19  C   UNL     1      -3.990  67.481  66.997  1.00  0.00    -0.007 C 
HETATM   20  C   UNL     1       1.340  70.390  70.077  1.00  0.00     0.005 C 
HETATM   21  C   UNL     1      -5.747  68.380  68.368  1.00  0.00     0.016 C 
HETATM   22  C   UNL     1      -0.393  68.802  70.446  1.00  0.00    -0.007 C 
HETATM   23  C   UNL     1      -0.606  70.539  68.609  1.00  0.00     0.034 C 
HETATM   24  C   UNL     1       0.465  68.756  71.574  1.00  0.00     0.156 C 
HETATM   25  C   UNL     1      -2.747  68.033  66.373  1.00  0.00     0.077 C 
HETATM   26  C   UNL     1      -5.979  66.222  67.311  1.00  0.00     0.099 C 
HETATM   27  O   UNL     1      -1.109  75.178  67.598  1.00  0.00    -0.292 OA
ENDROOT
BRANCH   1  28
HETATM   28  C   UNL     1       1.747  75.530  66.941  1.00  0.00     0.215 C 
HETATM   29  O   UNL     1       1.820  75.862  65.731  1.00  0.00    -0.644 OA
HETATM   30  O   UNL     1       2.210  76.237  67.869  1.00  0.00    -0.644 OA
ENDBRANCH   1  28
BRANCH   4  31
HETATM   31  O   UNL     1      -3.909  65.055  67.145  1.00  0.00    -0.357 OA
ATOM     32  HO  UNL     1      -4.311  64.227  67.381  1.00  0.00     0.217 HD
ENDBRANCH   4  31
BRANCH  26  33
HETATM   33  O   UNL     1      -6.705  65.121  66.968  1.00  0.00    -0.358 OA
ATOM     34  HO  UNL     1      -7.632  65.114  67.171  1.00  0.00     0.217 HD
ENDBRANCH  26  33
TORSDOF 3
ENDMDL
MODEL 6
REMARK VINA RESULT:      -8.6      2.378      7.637
REMARK  3 active torsions:
REMARK  status: ('A' for Active; 'I' for Inactive)
REMARK    1  A    between atoms: C_1  and  C_28 
REMARK    2  A    between atoms: C_4  and  O_6 
REMARK    3  A    between atoms: O_17  and  C_33 
ROOT
HETATM    1  C   UNL     1      -4.822  68.145  68.327  1.00  0.00     0.108 C 
HETATM    2  C   UNL     1       1.252  73.365  67.156  1.00  0.00    -0.016 C 
HETATM    3  C   UNL     1       1.468  71.591  68.871  1.00  0.00     0.013 C 
HETATM    4  C   UNL     1       1.449  75.658  67.514  1.00  0.00     0.106 C 
HETATM    5  C   UNL     1      -3.665  68.079  67.524  1.00  0.00     0.171 C 
HETATM    6  C   UNL     1      -2.183  68.633  70.496  1.00  0.00     0.045 C 
HETATM    7  C   UNL     1      -2.554  69.530  69.312  1.00  0.00     0.078 C 
HETATM    8  C   UNL     1      -0.413  69.089  72.318  1.00  0.00     0.089 C 
HETATM    9  O   UNL     1       1.249  70.613  73.200  1.00  0.00    -0.293 OA
HETATM   10  C   UNL     1      -4.946  69.109  69.291  1.00  0.00     0.158 C 
HETATM   11  O   UNL     1      -3.888  70.043  69.520  1.00  0.00    -0.350 OA
HETATM   12  C   UNL     1       1.304  71.452  70.250  1.00  0.00     0.012 C 
HETATM   13  C   UNL     1       2.859  74.571  65.842  1.00  0.00     0.040 C 
HETATM   14  C   UNL     1      -1.893  71.927  68.581  1.00  0.00     0.043 C 
HETATM   15  C   UNL     1      -0.733  72.825  68.224  1.00  0.00    -0.064 C 
HETATM   16  C   UNL     1      -1.151  70.857  70.768  1.00  0.00     0.034 C 
HETATM   17  C   UNL     1      -2.414  68.755  68.010  1.00  0.00     0.123 C 
HETATM   18  C   UNL     1       0.705  72.395  68.010  1.00  0.00    -0.023 C 
HETATM   19  C   UNL     1       0.581  74.571  67.393  1.00  0.00    -0.007 C 
HETATM   20  C   UNL     1      -1.588  69.598  71.507  1.00  0.00     0.005 C 
HETATM   21  C   UNL     1       2.263  73.349  66.187  1.00  0.00     0.016 C 
HETATM   22  C   UNL     1       0.321  70.941  71.045  1.00  0.00    -0.007 C 
HETATM   23  C   UNL     1      -1.496  70.640  69.299  1.00  0.00     0.034 C 
HETATM   24  C   UNL     1       0.610  70.189  72.212  1.00  0.00     0.156 C 
HETATM   25  C   UNL     1      -0.817  74.285  67.843  1.00  0.00     0.077 C 
HETATM   26  C   UNL     1       2.482  75.724  66.557  1.00  0.00     0.099 C 
HETATM   27  O   UNL     1      -3.659  67.585  66.336  1.00  0.00    -0.292 OA
ENDROOT
BRANCH   1  28
HETATM   28  C   UNL     1      -5.980  67.214  68.123  1.00  0.00     0.215 C 
HETATM   29  O   UNL     1      -7.092  67.691  67.781  1.00  0.00    -0.644 OA
HETATM   30  O   UNL     1      -5.787  65.984  68.278  1.00  0.00    -0.644 OA
ENDBRANCH   1  28
BRANCH   4  31
HETATM   31  O   UNL     1       1.556  76.417  68.640  1.00  0.00    -0.357 OA
ATOM     32  HO  UNL     1       2.286  76.359  69.246  1.00  0.00     0.217 HD
ENDBRANCH   4  31
BRANCH  26  33
HETATM   33  O   UNL     1       3.098  76.922  66.356  1.00  0.00    -0.358 OA
ATOM     34  HO  UNL     1       3.919  77.086  66.804  1.00  0.00     0.217 HD
ENDBRANCH  26  33
TORSDOF 3
ENDMDL
MODEL 7
REMARK VINA RESULT:      -8.1      2.235      2.728
REMARK  3 active torsions:
REMARK  status: ('A' for Active; 'I' for Inactive)
REMARK    1  A    between atoms: C_1  and  C_28 
REMARK    2  A    between atoms: C_4  and  O_6 
REMARK    3  A    between atoms: O_17  and  C_33 
ROOT
HETATM    1  C   UNL     1      -1.998  71.541  72.980  1.00  0.00     0.108 C 
HETATM    2  C   UNL     1      -4.504  66.773  66.938  1.00  0.00    -0.016 C 
HETATM    3  C   UNL     1      -2.237  67.769  66.860  1.00  0.00     0.013 C 
HETATM    4  C   UNL     1      -6.171  67.014  65.329  1.00  0.00     0.106 C 
HETATM    5  C   UNL     1      -1.844  70.159  72.745  1.00  0.00     0.171 C 
HETATM    6  C   UNL     1      -0.492  71.308  69.884  1.00  0.00     0.045 C 
HETATM    7  C   UNL     1      -1.869  70.756  70.259  1.00  0.00     0.078 C 
HETATM    8  C   UNL     1       0.567  71.424  67.533  1.00  0.00     0.089 C 
HETATM    9  O   UNL     1       0.308  70.991  65.165  1.00  0.00    -0.293 OA
HETATM   10  C   UNL     1      -2.434  72.371  71.983  1.00  0.00     0.158 C 
HETATM   11  O   UNL     1      -2.709  71.855  70.680  1.00  0.00    -0.350 OA
HETATM   12  C   UNL     1      -1.604  68.869  66.281  1.00  0.00     0.012 C 
HETATM   13  C   UNL     1      -5.446  64.778  65.991  1.00  0.00     0.040 C 
HETATM   14  C   UNL     1      -3.906  69.897  68.905  1.00  0.00     0.043 C 
HETATM   15  C   UNL     1      -4.358  68.886  67.880  1.00  0.00    -0.064 C 
HETATM   16  C   UNL     1      -1.822  70.908  67.846  1.00  0.00     0.034 C 
HETATM   17  C   UNL     1      -1.726  69.680  71.325  1.00  0.00     0.123 C 
HETATM   18  C   UNL     1      -3.551  67.716  67.352  1.00  0.00    -0.023 C 
HETATM   19  C   UNL     1      -5.653  67.469  66.544  1.00  0.00    -0.007 C 
HETATM   20  C   UNL     1      -0.638  71.676  68.418  1.00  0.00     0.005 C 
HETATM   21  C   UNL     1      -4.517  65.375  66.857  1.00  0.00     0.016 C 
HETATM   22  C   UNL     1      -1.219  70.095  66.738  1.00  0.00    -0.007 C 
HETATM   23  C   UNL     1      -2.391  70.075  68.989  1.00  0.00     0.034 C 
HETATM   24  C   UNL     1       0.001  70.698  66.341  1.00  0.00     0.156 C 
HETATM   25  C   UNL     1      -5.754  68.745  67.319  1.00  0.00     0.077 C 
HETATM   26  C   UNL     1      -6.238  65.614  65.181  1.00  0.00     0.099 C 
HETATM   27  O   UNL     1      -1.935  69.272  73.673  1.00  0.00    -0.292 OA
ENDROOT
BRANCH   1  28
HETATM   28  C   UNL     1      -1.753  72.144  74.331  1.00  0.00     0.215 C 
HETATM   29  O   UNL     1      -2.730  72.333  75.100  1.00  0.00    -0.644 OA
HETATM   30  O   UNL     1      -0.571  72.418  74.653  1.00  0.00    -0.644 OA
ENDBRANCH   1  28
BRANCH   4  31
HETATM   31  O   UNL     1      -6.282  67.792  64.217  1.00  0.00    -0.357 OA
ATOM     32  HO  UNL     1      -7.006  68.389  64.062  1.00  0.00     0.217 HD
ENDBRANCH   4  31
BRANCH  26  33
HETATM   33  O   UNL     1      -7.079  65.106  64.238  1.00  0.00    -0.358 OA
ATOM     34  HO  UNL     1      -7.731  64.472  64.512  1.00  0.00     0.217 HD
ENDBRANCH  26  33
TORSDOF 3
ENDMDL
MODEL 8
REMARK VINA RESULT:      -7.8      2.690      5.453
REMARK  3 active torsions:
REMARK  status: ('A' for Active; 'I' for Inactive)
REMARK    1  A    between atoms: C_1  and  C_28 
REMARK    2  A    between atoms: C_4  and  O_6 
REMARK    3  A    between atoms: O_17  and  C_33 
ROOT
HETATM    1  C   UNL     1      -0.346  75.630  69.466  1.00  0.00     0.108 C 
HETATM    2  C   UNL     1      -3.692  68.394  68.069  1.00  0.00    -0.016 C 
HETATM    3  C   UNL     1      -2.668  68.871  70.274  1.00  0.00     0.013 C 
HETATM    4  C   UNL     1      -3.127  66.647  66.636  1.00  0.00     0.106 C 
HETATM    5  C   UNL     1      -1.638  75.126  69.717  1.00  0.00     0.171 C 
HETATM    6  C   UNL     1       0.139  72.816  71.402  1.00  0.00     0.045 C 
HETATM    7  C   UNL     1      -0.504  72.854  70.014  1.00  0.00     0.078 C 
HETATM    8  C   UNL     1       0.792  70.730  72.774  1.00  0.00     0.089 C 
HETATM    9  O   UNL     1       0.892  68.313  72.873  1.00  0.00    -0.293 OA
HETATM   10  C   UNL     1       0.678  74.785  69.134  1.00  0.00     0.158 C 
HETATM   11  O   UNL     1       0.460  73.374  69.071  1.00  0.00    -0.350 OA
HETATM   12  C   UNL     1      -1.456  68.645  70.928  1.00  0.00     0.012 C 
HETATM   13  C   UNL     1      -5.441  66.907  67.369  1.00  0.00     0.040 C 
HETATM   14  C   UNL     1      -1.073  71.059  68.233  1.00  0.00     0.043 C 
HETATM   15  C   UNL     1      -1.839  69.783  67.978  1.00  0.00    -0.064 C 
HETATM   16  C   UNL     1       0.181  70.566  70.393  1.00  0.00     0.034 C 
HETATM   17  C   UNL     1      -1.787  73.669  70.058  1.00  0.00     0.123 C 
HETATM   18  C   UNL     1      -2.849  69.139  68.908  1.00  0.00    -0.023 C 
HETATM   19  C   UNL     1      -2.944  67.994  66.956  1.00  0.00    -0.007 C 
HETATM   20  C   UNL     1       0.822  71.460  71.446  1.00  0.00     0.005 C 
HETATM   21  C   UNL     1      -5.037  68.009  68.136  1.00  0.00     0.016 C 
HETATM   22  C   UNL     1      -0.356  69.410  71.185  1.00  0.00    -0.007 C 
HETATM   23  C   UNL     1      -0.894  71.403  69.709  1.00  0.00     0.034 C 
HETATM   24  C   UNL     1       0.340  69.338  72.418  1.00  0.00     0.156 C 
HETATM   25  C   UNL     1      -1.874  69.005  66.684  1.00  0.00     0.077 C 
HETATM   26  C   UNL     1      -4.460  66.190  66.659  1.00  0.00     0.099 C 
HETATM   27  O   UNL     1      -2.710  75.815  69.540  1.00  0.00    -0.292 OA
ENDROOT
BRANCH   1  28
HETATM   28  C   UNL     1      -0.053  77.101  69.488  1.00  0.00     0.215 C 
HETATM   29  O   UNL     1       0.111  77.673  70.596  1.00  0.00    -0.644 OA
HETATM   30  O   UNL     1       0.040  77.704  68.392  1.00  0.00    -0.644 OA
ENDBRANCH   1  28
BRANCH   4  31
HETATM   31  O   UNL     1      -2.122  65.726  66.645  1.00  0.00    -0.357 OA
ATOM     32  HO  UNL     1      -1.391  65.752  67.251  1.00  0.00     0.217 HD
ENDBRANCH   4  31
BRANCH  26  33
HETATM   33  O   UNL     1      -4.759  65.044  65.985  1.00  0.00    -0.358 OA
ATOM     34  HO  UNL     1      -5.094  65.119  65.099  1.00  0.00     0.217 HD
ENDBRANCH  26  33
TORSDOF 3
ENDMDL
MODEL 9
REMARK VINA RESULT:      -7.4      2.994      8.186
REMARK  3 active torsions:
REMARK  status: ('A' for Active; 'I' for Inactive)
REMARK    1  A    between atoms: C_1  and  C_28 
REMARK    2  A    between atoms: C_4  and  O_6 
REMARK    3  A    between atoms: O_17  and  C_33 
ROOT
HETATM    1  C   UNL     1       0.581  74.245  67.559  1.00  0.00     0.108 C 
HETATM    2  C   UNL     1       2.266  68.578  73.087  1.00  0.00    -0.016 C 
HETATM    3  C   UNL     1       0.335  68.276  71.565  1.00  0.00     0.013 C 
HETATM    4  C   UNL     1       2.199  68.579  75.415  1.00  0.00     0.106 C 
HETATM    5  C   UNL     1       1.342  73.060  67.491  1.00  0.00     0.171 C 
HETATM    6  C   UNL     1      -1.568  71.728  68.535  1.00  0.00     0.045 C 
HETATM    7  C   UNL     1      -0.272  72.130  69.242  1.00  0.00     0.078 C 
HETATM    8  C   UNL     1      -3.358  70.063  69.363  1.00  0.00     0.089 C 
HETATM    9  O   UNL     1      -4.076  68.560  71.120  1.00  0.00    -0.293 OA
HETATM   10  C   UNL     1      -0.250  74.478  68.622  1.00  0.00     0.158 C 
HETATM   11  O   UNL     1      -0.382  73.508  69.663  1.00  0.00    -0.350 OA
HETATM   12  C   UNL     1      -1.046  68.475  71.586  1.00  0.00     0.012 C 
HETATM   13  C   UNL     1       3.686  67.031  74.251  1.00  0.00     0.040 C 
HETATM   14  C   UNL     1       0.743  71.642  71.577  1.00  0.00     0.043 C 
HETATM   15  C   UNL     1       1.184  70.547  72.518  1.00  0.00    -0.064 C 
HETATM   16  C   UNL     1      -1.579  70.890  70.855  1.00  0.00     0.034 C 
HETATM   17  C   UNL     1       0.918  71.884  68.326  1.00  0.00     0.123 C 
HETATM   18  C   UNL     1       1.309  69.073  72.188  1.00  0.00    -0.023 C 
HETATM   19  C   UNL     1       2.201  69.352  74.251  1.00  0.00    -0.007 C 
HETATM   20  C   UNL     1      -2.461  71.248  69.666  1.00  0.00     0.005 C 
HETATM   21  C   UNL     1       3.202  67.537  73.035  1.00  0.00     0.016 C 
HETATM   22  C   UNL     1      -1.877  69.440  71.097  1.00  0.00    -0.007 C 
HETATM   23  C   UNL     1      -0.142  71.167  70.428  1.00  0.00     0.034 C 
HETATM   24  C   UNL     1      -3.136  69.129  70.524  1.00  0.00     0.156 C 
HETATM   25  C   UNL     1       1.749  70.736  73.906  1.00  0.00     0.077 C 
HETATM   26  C   UNL     1       3.132  67.524  75.448  1.00  0.00     0.099 C 
HETATM   27  O   UNL     1       2.457  72.975  66.855  1.00  0.00    -0.292 OA
ENDROOT
BRANCH   1  28
HETATM   28  C   UNL     1       0.692  75.316  66.515  1.00  0.00     0.215 C 
HETATM   29  O   UNL     1       1.548  76.224  66.663  1.00  0.00    -0.644 OA
HETATM   30  O   UNL     1      -0.064  75.251  65.515  1.00  0.00    -0.644 OA
ENDBRANCH   1  28
BRANCH   4  31
HETATM   31  O   UNL     1       1.176  68.572  76.315  1.00  0.00    -0.357 OA
ATOM     32  HO  UNL     1       1.205  68.104  77.142  1.00  0.00     0.217 HD
ENDBRANCH   4  31
BRANCH  26  33
HETATM   33  O   UNL     1       3.470  67.001  76.660  1.00  0.00    -0.358 OA
ATOM     34  HO  UNL     1       3.326  67.532  77.434  1.00  0.00     0.217 HD
ENDBRANCH  26  33
TORSDOF 3
ENDMDL
