MODEL 1
REMARK VINA RESULT:     -10.4      0.000      0.000
REMARK  2 active torsions:
REMARK  status: ('A' for Active; 'I' for Inactive)
REMARK    1  A    between atoms: C_20  and  C_24 
REMARK    2  A    between atoms: C_20  and  O_28 
ROOT
HETATM    1  C   UNL     1       7.711  17.810  16.217  1.00  0.00     0.049 C 
HETATM    2  C   UNL     1       8.310  18.750  15.182  1.00  0.00     0.030 C 
HETATM    3  C   UNL     1       9.021  13.598  15.105  1.00  0.00     0.001 C 
HETATM    4  C   UNL     1       8.333  16.420  16.026  1.00  0.00    -0.022 C 
HETATM    5  O   UNL     1       7.640  19.573  17.826  1.00  0.00    -0.293 OA
HETATM    6  O   UNL     1       7.139  16.363  12.682  1.00  0.00    -0.292 OA
HETATM    7  C   UNL     1       8.627  16.087  18.431  1.00  0.00     0.085 C 
HETATM    8  C   UNL     1       7.720  16.754  13.674  1.00  0.00     0.160 C 
HETATM    9  C   UNL     1      10.074  13.894  15.927  1.00  0.00     0.001 C 
HETATM   10  C   UNL     1       8.142  14.492  14.545  1.00  0.00     0.016 C 
HETATM   11  C   UNL     1       8.129  15.847  14.772  1.00  0.00     0.018 C 
HETATM   12  C   UNL     1       9.031  15.782  17.020  1.00  0.00    -0.046 C 
HETATM   13  C   UNL     1       7.918  18.394  17.588  1.00  0.00     0.174 C 
HETATM   14  C   UNL     1       8.756  17.602  18.550  1.00  0.00     0.127 C 
HETATM   15  C   UNL     1       8.080  18.221  13.778  1.00  0.00     0.085 C 
HETATM   16  C   UNL     1      10.130  14.979  16.791  1.00  0.00     0.008 C 
HETATM   17  C   UNL     1       6.191  17.695  16.041  1.00  0.00     0.029 C 
ENDROOT
BRANCH  14  18
HETATM   18  C   UNL     1       8.362  17.991  19.957  1.00  0.00     0.032 C 
HETATM   19  C   UNL     1       8.392  16.945  21.041  1.00  0.00     0.008 C 
HETATM   20  C   UNL     1       9.583  16.920  21.983  1.00  0.00     0.001 C 
HETATM   21  C   UNL     1       9.821  18.170  22.853  1.00  0.00     0.005 C 
HETATM   22  C   UNL     1      10.665  19.290  22.204  1.00  0.00    -0.014 C 
HETATM   23  C   UNL     1      10.081  20.650  22.629  1.00  0.00     0.005 C 
HETATM   24  C   UNL     1      10.457  19.232  20.687  1.00  0.00     0.010 C 
HETATM   25  C   UNL     1       8.608  20.800  22.284  1.00  0.00     0.001 C 
HETATM   26  C   UNL     1       8.196  20.370  20.888  1.00  0.00     0.005 C 
HETATM   27  C   UNL     1       8.996  19.265  20.344  1.00  0.00    -0.007 C 
ENDBRANCH  14  18
BRANCH  14  28
HETATM   28  O   UNL     1      10.127  17.915  18.299  1.00  0.00    -0.381 OA
ATOM     29  HO  UNL     1      10.586  17.085  18.232  1.00  0.00     0.211 HD
ENDBRANCH  14  28
TORSDOF 2
ENDMDL
MODEL 2
REMARK VINA RESULT:      -8.0      1.284      3.325
REMARK  2 active torsions:
REMARK  status: ('A' for Active; 'I' for Inactive)
REMARK    1  A    between atoms: C_20  and  C_24 
REMARK    2  A    between atoms: C_20  and  O_28 
ROOT
HETATM    1  C   UNL     1       8.892  15.633  17.087  1.00  0.00     0.049 C 
HETATM    2  C   UNL     1       7.812  14.585  17.312  1.00  0.00     0.030 C 
HETATM    3  C   UNL     1       7.673  18.032  13.418  1.00  0.00     0.001 C 
HETATM    4  C   UNL     1       8.395  16.618  16.019  1.00  0.00    -0.022 C 
HETATM    5  O   UNL     1       9.466  15.588  19.404  1.00  0.00    -0.293 OA
HETATM    6  O   UNL     1       8.031  13.929  13.729  1.00  0.00    -0.292 OA
HETATM    7  C   UNL     1       9.201  18.562  17.265  1.00  0.00     0.085 C 
HETATM    8  C   UNL     1       7.898  14.583  14.743  1.00  0.00     0.160 C 
HETATM    9  C   UNL     1       7.052  18.817  14.351  1.00  0.00     0.001 C 
HETATM   10  C   UNL     1       8.128  16.749  13.599  1.00  0.00     0.016 C 
HETATM   11  C   UNL     1       8.097  16.051  14.782  1.00  0.00     0.018 C 
HETATM   12  C   UNL     1       8.263  17.961  16.262  1.00  0.00    -0.046 C 
HETATM   13  C   UNL     1       9.236  16.274  18.404  1.00  0.00     0.174 C 
HETATM   14  C   UNL     1       8.981  17.748  18.535  1.00  0.00     0.127 C 
HETATM   15  C   UNL     1       7.468  13.879  16.014  1.00  0.00     0.085 C 
HETATM   16  C   UNL     1       7.262  18.743  15.721  1.00  0.00     0.008 C 
HETATM   17  C   UNL     1      10.191  14.986  16.588  1.00  0.00     0.029 C 
ENDROOT
BRANCH  14  18
HETATM   18  C   UNL     1       9.899  18.297  19.603  1.00  0.00     0.032 C 
HETATM   19  C   UNL     1      10.810  19.449  19.263  1.00  0.00     0.008 C 
HETATM   20  C   UNL     1      10.394  20.844  19.695  1.00  0.00     0.001 C 
HETATM   21  C   UNL     1      10.244  21.099  21.209  1.00  0.00     0.005 C 
HETATM   22  C   UNL     1       8.862  20.763  21.812  1.00  0.00    -0.014 C 
HETATM   23  C   UNL     1       9.075  20.157  23.211  1.00  0.00     0.005 C 
HETATM   24  C   UNL     1       8.238  19.633  20.987  1.00  0.00     0.010 C 
HETATM   25  C   UNL     1       9.982  18.937  23.201  1.00  0.00     0.001 C 
HETATM   26  C   UNL     1       9.708  17.903  22.125  1.00  0.00     0.005 C 
HETATM   27  C   UNL     1       9.178  18.467  20.877  1.00  0.00    -0.007 C 
ENDBRANCH  14  18
BRANCH  14  28
HETATM   28  O   UNL     1       7.611  17.925  18.899  1.00  0.00    -0.381 OA
ATOM     29  HO  UNL     1       7.539  18.799  19.266  1.00  0.00     0.211 HD
ENDBRANCH  14  28
TORSDOF 2
ENDMDL
