MODEL 1
REMARK VINA RESULT:      -8.4      0.000      0.000
REMARK  4 active torsions:
REMARK  status: ('A' for Active; 'I' for Inactive)
REMARK    1  A    between atoms: O_7  and  C_12 
REMARK    2  A    between atoms: O_9  and  C_18 
REMARK    3  A    between atoms: C_13  and  N_29 
REMARK    4  A    between atoms: C_18  and  O_23 
ROOT
HETATM    1  C   UNL     1       7.893  16.904  16.332  1.00  0.00     0.138 C 
HETATM    2  O   UNL     1       6.899  15.161  15.069  1.00  0.00    -0.272 OA
HETATM    3  C   UNL     1       7.963  19.323  13.326  1.00  0.00     0.025 C 
HETATM    4  C   UNL     1       5.817  19.508  18.284  1.00  0.00     0.018 C 
HETATM    5  N   UNL     1       7.703  16.971  13.901  1.00  0.00    -0.315 N 
HETATM    6  C   UNL     1       6.882  16.933  11.541  1.00  0.00     0.061 C 
HETATM    7  N   UNL     1       9.493  18.248  17.402  1.00  0.00    -0.369 N 
ATOM      8  HN  UNL     1      10.381  18.617  17.742  1.00  0.00     0.161 HD
HETATM    9  C   UNL     1       7.250  17.950  17.187  1.00  0.00     0.001 C 
HETATM   10  C   UNL     1       6.779  19.633  19.264  1.00  0.00     0.099 C 
HETATM   11  C   UNL     1       8.286  18.444  17.984  1.00  0.00     0.115 C 
HETATM   12  C   UNL     1       6.023  18.589  17.246  1.00  0.00     0.013 C 
HETATM   13  C   UNL     1       7.383  16.283  15.061  1.00  0.00     0.235 C 
HETATM   14  C   UNL     1       6.779  18.301  11.409  1.00  0.00     0.034 C 
HETATM   15  C   UNL     1       8.342  18.193  14.008  1.00  0.00     0.017 C 
HETATM   16  C   UNL     1       7.128  19.318  12.225  1.00  0.00     0.004 C 
HETATM   17  N   UNL     1       8.026  19.085  19.157  1.00  0.00    -0.308 N 
HETATM   18  C   UNL     1       9.318  17.416  16.198  1.00  0.00     0.106 C 
HETATM   19  C   UNL     1       9.513  18.283  14.958  1.00  0.00     0.083 C 
HETATM   20  C   UNL     1       7.563  16.251  12.650  1.00  0.00     0.196 C 
ENDROOT
BRANCH  17  21
HETATM   21  C   UNL     1       8.983  19.192  20.180  1.00  0.00     0.040 C 
HETATM   22  C   UNL     1       9.104  18.212  21.156  1.00  0.00     0.031 C 
HETATM   23  C   UNL     1       9.650  18.505  22.395  1.00  0.00     0.047 C 
HETATM   24  C   UNL     1      10.141  19.826  22.688  1.00  0.00     0.199 C 
HETATM   25  C   UNL     1      10.349  20.654  21.524  1.00  0.00     0.047 C 
HETATM   26  C   UNL     1       9.787  20.317  20.305  1.00  0.00     0.031 C 
BRANCH  24  27
HETATM   27  O   UNL     1      11.378  19.673  23.341  1.00  0.00    -0.359 OA
ATOM     28  HO  UNL     1      11.463  20.394  23.954  1.00  0.00     0.213 HD
ENDBRANCH  24  27
BRANCH  24  29
HETATM   29  O   UNL     1       9.291  20.464  23.626  1.00  0.00    -0.359 OA
ATOM     30  HO  UNL     1       9.798  21.187  23.978  1.00  0.00     0.213 HD
ENDBRANCH  24  29
ENDBRANCH  17  21
BRANCH   6  31
HETATM   31  O   UNL     1       6.325  16.124  10.617  1.00  0.00    -0.363 OA
ATOM     32  HO  UNL     1       5.713  16.479   9.984  1.00  0.00     0.217 HD
ENDBRANCH   6  31
TORSDOF 4
ENDMDL
MODEL 2
REMARK VINA RESULT:      -5.7      1.647      8.298
REMARK  4 active torsions:
REMARK  status: ('A' for Active; 'I' for Inactive)
REMARK    1  A    between atoms: O_7  and  C_12 
REMARK    2  A    between atoms: O_9  and  C_18 
REMARK    3  A    between atoms: C_13  and  N_29 
REMARK    4  A    between atoms: C_18  and  O_23 
ROOT
HETATM    1  C   UNL     1       8.115  17.185  18.904  1.00  0.00     0.138 C 
HETATM    2  O   UNL     1       8.138  16.370  21.130  1.00  0.00    -0.272 OA
HETATM    3  C   UNL     1      10.041  20.396  19.840  1.00  0.00     0.025 C 
HETATM    4  C   UNL     1      10.888  16.355  16.352  1.00  0.00     0.018 C 
HETATM    5  N   UNL     1       8.774  18.557  20.811  1.00  0.00    -0.315 N 
HETATM    6  C   UNL     1       9.859  19.469  22.869  1.00  0.00     0.061 C 
HETATM    7  N   UNL     1       7.417  18.228  16.920  1.00  0.00    -0.369 N 
ATOM      8  HN  UNL     1       6.862  18.740  16.235  1.00  0.00     0.161 HD
HETATM    9  C   UNL     1       9.063  16.918  17.780  1.00  0.00     0.001 C 
HETATM   10  C   UNL     1      10.009  16.389  15.290  1.00  0.00     0.099 C 
HETATM   11  C   UNL     1       8.374  17.315  16.631  1.00  0.00     0.115 C 
HETATM   12  C   UNL     1      10.394  16.557  17.648  1.00  0.00     0.013 C 
HETATM   13  C   UNL     1       8.406  17.293  20.376  1.00  0.00     0.235 C 
HETATM   14  C   UNL     1      10.758  20.274  22.205  1.00  0.00     0.034 C 
HETATM   15  C   UNL     1       8.954  19.556  19.873  1.00  0.00     0.017 C 
HETATM   16  C   UNL     1      10.912  20.574  20.898  1.00  0.00     0.004 C 
HETATM   17  N   UNL     1       8.724  16.842  15.402  1.00  0.00    -0.308 N 
HETATM   18  C   UNL     1       7.307  18.364  18.384  1.00  0.00     0.106 C 
HETATM   19  C   UNL     1       7.894  19.706  18.807  1.00  0.00     0.083 C 
HETATM   20  C   UNL     1       8.710  18.804  22.239  1.00  0.00     0.196 C 
ENDROOT
BRANCH  17  21
HETATM   21  C   UNL     1       7.830  16.838  14.318  1.00  0.00     0.040 C 
HETATM   22  C   UNL     1       7.914  15.877  13.321  1.00  0.00     0.031 C 
HETATM   23  C   UNL     1       7.414  16.122  12.053  1.00  0.00     0.047 C 
HETATM   24  C   UNL     1       6.757  17.366  11.749  1.00  0.00     0.199 C 
HETATM   25  C   UNL     1       6.358  18.125  12.910  1.00  0.00     0.047 C 
HETATM   26  C   UNL     1       6.882  17.840  14.159  1.00  0.00     0.031 C 
BRANCH  24  27
HETATM   27  O   UNL     1       5.600  17.056  11.012  1.00  0.00    -0.359 OA
ATOM     28  HO  UNL     1       5.562  16.110  10.933  1.00  0.00     0.213 HD
ENDBRANCH  24  27
BRANCH  24  29
HETATM   29  O   UNL     1       7.565  18.144  10.881  1.00  0.00    -0.359 OA
ATOM     30  HO  UNL     1       8.448  18.072  11.223  1.00  0.00     0.213 HD
ENDBRANCH  24  29
ENDBRANCH  17  21
BRANCH   6  31
HETATM   31  O   UNL     1      10.011  19.236  24.188  1.00  0.00    -0.363 OA
ATOM     32  HO  UNL     1      10.256  19.946  24.770  1.00  0.00     0.217 HD
ENDBRANCH   6  31
TORSDOF 4
ENDMDL
MODEL 3
REMARK VINA RESULT:      -5.5      1.588      8.304
REMARK  4 active torsions:
REMARK  status: ('A' for Active; 'I' for Inactive)
REMARK    1  A    between atoms: O_7  and  C_12 
REMARK    2  A    between atoms: O_9  and  C_18 
REMARK    3  A    between atoms: C_13  and  N_29 
REMARK    4  A    between atoms: C_18  and  O_23 
ROOT
HETATM    1  C   UNL     1       9.027  19.282  17.859  1.00  0.00     0.138 C 
HETATM    2  O   UNL     1       9.439  20.879  19.562  1.00  0.00    -0.272 OA
HETATM    3  C   UNL     1       9.114  16.318  20.329  1.00  0.00     0.025 C 
HETATM    4  C   UNL     1       5.466  18.214  16.821  1.00  0.00     0.018 C 
HETATM    5  N   UNL     1       9.728  18.665  20.113  1.00  0.00    -0.315 N 
HETATM    6  C   UNL     1       9.931  18.391  22.588  1.00  0.00     0.061 C 
HETATM    7  N   UNL     1       9.359  17.770  16.093  1.00  0.00    -0.369 N 
ATOM      8  HN  UNL     1       9.800  17.203  15.371  1.00  0.00     0.161 HD
HETATM    9  C   UNL     1       7.728  18.801  17.295  1.00  0.00     0.001 C 
HETATM   10  C   UNL     1       5.842  18.002  15.511  1.00  0.00     0.099 C 
HETATM   11  C   UNL     1       8.070  18.185  16.087  1.00  0.00     0.115 C 
HETATM   12  C   UNL     1       6.418  18.693  17.731  1.00  0.00     0.013 C 
HETATM   13  C   UNL     1       9.344  19.696  19.269  1.00  0.00     0.235 C 
HETATM   14  C   UNL     1       9.292  17.172  22.645  1.00  0.00     0.034 C 
HETATM   15  C   UNL     1       9.675  17.366  19.641  1.00  0.00     0.017 C 
HETATM   16  C   UNL     1       8.833  16.344  21.682  1.00  0.00     0.004 C 
HETATM   17  N   UNL     1       7.146  18.009  15.102  1.00  0.00    -0.308 N 
HETATM   18  C   UNL     1      10.020  18.268  17.313  1.00  0.00     0.106 C 
HETATM   19  C   UNL     1      10.250  17.102  18.269  1.00  0.00     0.083 C 
HETATM   20  C   UNL     1      10.386  19.038  21.350  1.00  0.00     0.196 C 
ENDROOT
BRANCH  17  21
HETATM   21  C   UNL     1       7.512  17.827  13.757  1.00  0.00     0.040 C 
HETATM   22  C   UNL     1       7.435  18.870  12.845  1.00  0.00     0.031 C 
HETATM   23  C   UNL     1       7.305  18.620  11.488  1.00  0.00     0.047 C 
HETATM   24  C   UNL     1       7.285  17.271  10.988  1.00  0.00     0.199 C 
HETATM   25  C   UNL     1       7.765  16.283  11.924  1.00  0.00     0.047 C 
HETATM   26  C   UNL     1       7.884  16.581  13.271  1.00  0.00     0.031 C 
BRANCH  24  27
HETATM   27  O   UNL     1       8.116  17.236   9.853  1.00  0.00    -0.359 OA
ATOM     28  HO  UNL     1       8.150  16.335   9.557  1.00  0.00     0.213 HD
ENDBRANCH  24  27
BRANCH  24  29
HETATM   29  O   UNL     1       5.987  16.944  10.519  1.00  0.00    -0.359 OA
ATOM     30  HO  UNL     1       5.388  17.462  11.045  1.00  0.00     0.213 HD
ENDBRANCH  24  29
ENDBRANCH  17  21
BRANCH   6  31
HETATM   31  O   UNL     1      10.166  19.081  23.723  1.00  0.00    -0.363 OA
ATOM     32  HO  UNL     1       9.555  19.024  24.447  1.00  0.00     0.217 HD
ENDBRANCH   6  31
TORSDOF 4
ENDMDL
MODEL 4
REMARK VINA RESULT:      -5.4      1.638      8.250
REMARK  4 active torsions:
REMARK  status: ('A' for Active; 'I' for Inactive)
REMARK    1  A    between atoms: O_7  and  C_12 
REMARK    2  A    between atoms: O_9  and  C_18 
REMARK    3  A    between atoms: C_13  and  N_29 
REMARK    4  A    between atoms: C_18  and  O_23 
ROOT
HETATM    1  C   UNL     1       7.412  18.551  18.258  1.00  0.00     0.138 C 
HETATM    2  O   UNL     1       6.237  18.681  20.313  1.00  0.00    -0.272 OA
HETATM    3  C   UNL     1      10.806  19.358  19.909  1.00  0.00     0.025 C 
HETATM    4  C   UNL     1       8.927  15.259  16.929  1.00  0.00     0.018 C 
HETATM    5  N   UNL     1       8.404  19.452  20.297  1.00  0.00    -0.315 N 
HETATM    6  C   UNL     1       9.232  19.803  22.628  1.00  0.00     0.061 C 
HETATM    7  N   UNL     1       8.332  19.127  16.176  1.00  0.00    -0.369 N 
ATOM      8  HN  UNL     1       8.594  19.651  15.342  1.00  0.00     0.161 HD
HETATM    9  C   UNL     1       8.005  17.363  17.571  1.00  0.00     0.001 C 
HETATM   10  C   UNL     1       8.721  15.621  15.614  1.00  0.00     0.099 C 
HETATM   11  C   UNL     1       8.214  17.780  16.254  1.00  0.00     0.115 C 
HETATM   12  C   UNL     1       8.495  16.122  17.945  1.00  0.00     0.013 C 
HETATM   13  C   UNL     1       7.302  18.828  19.732  1.00  0.00     0.235 C 
HETATM   14  C   UNL     1      10.535  19.439  22.367  1.00  0.00     0.034 C 
HETATM   15  C   UNL     1       9.525  19.657  19.515  1.00  0.00     0.017 C 
HETATM   16  C   UNL     1      11.177  19.129  21.221  1.00  0.00     0.004 C 
HETATM   17  N   UNL     1       8.334  16.878  15.240  1.00  0.00    -0.308 N 
HETATM   18  C   UNL     1       8.022  19.715  17.492  1.00  0.00     0.106 C 
HETATM   19  C   UNL     1       9.311  20.222  18.130  1.00  0.00     0.083 C 
HETATM   20  C   UNL     1       8.216  20.064  21.598  1.00  0.00     0.196 C 
ENDROOT
BRANCH  17  21
HETATM   21  C   UNL     1       8.094  17.222  13.899  1.00  0.00     0.040 C 
HETATM   22  C   UNL     1       7.936  18.546  13.515  1.00  0.00     0.031 C 
HETATM   23  C   UNL     1       7.234  18.875  12.367  1.00  0.00     0.047 C 
HETATM   24  C   UNL     1       6.685  17.847  11.521  1.00  0.00     0.199 C 
HETATM   25  C   UNL     1       7.225  16.530  11.761  1.00  0.00     0.047 C 
HETATM   26  C   UNL     1       7.924  16.250  12.922  1.00  0.00     0.031 C 
BRANCH  24  27
HETATM   27  O   UNL     1       6.977  18.203  10.192  1.00  0.00    -0.359 OA
ATOM     28  HO  UNL     1       7.657  18.865  10.221  1.00  0.00     0.213 HD
ENDBRANCH  24  27
BRANCH  24  29
HETATM   29  O   UNL     1       5.270  17.846  11.614  1.00  0.00    -0.359 OA
ATOM     30  HO  UNL     1       4.968  17.298  10.898  1.00  0.00     0.213 HD
ENDBRANCH  24  29
ENDBRANCH  17  21
BRANCH   6  31
HETATM   31  O   UNL     1       8.812  19.931  23.903  1.00  0.00    -0.363 OA
ATOM     32  HO  UNL     1       9.151  20.632  24.446  1.00  0.00     0.217 HD
ENDBRANCH   6  31
TORSDOF 4
ENDMDL
