MODEL 1
REMARK VINA RESULT:      -9.3      0.000      0.000
REMARK  5 active torsions:
REMARK  status: ('A' for Active; 'I' for Inactive)
REMARK    1  A    between atoms: C_1  and  O_9 
REMARK    2  A    between atoms: C_2  and  O_4 
REMARK    3  A    between atoms: C_8  and  C_25 
REMARK    4  A    between atoms: C_11  and  O_31 
REMARK    5  A    between atoms: O_12  and  C_15 
ROOT
HETATM    1  C   UNL     1      10.227  20.652  21.620  1.00  0.00     0.152 C 
HETATM    2  C   UNL     1       5.415  20.755  18.444  1.00  0.00     0.010 C 
HETATM    3  C   UNL     1      10.631  20.220  20.204  1.00  0.00     0.095 C 
HETATM    4  C   UNL     1       7.206  19.413  17.464  1.00  0.00     0.030 C 
HETATM    5  C   UNL     1       9.615  19.148  19.780  1.00  0.00     0.136 C 
HETATM    6  C   UNL     1       8.722  20.472  21.682  1.00  0.00     0.155 C 
HETATM    7  C   UNL     1       7.069  19.821  20.013  1.00  0.00     0.016 C 
HETATM    8  C   UNL     1       6.326  19.563  18.718  1.00  0.00    -0.016 C 
HETATM    9  N   UNL     1       9.439  19.157  18.325  1.00  0.00    -0.386 N 
ATOM     10  HN  UNL     1      10.083  19.691  17.742  1.00  0.00     0.156 HD
HETATM   11  C   UNL     1       8.347  18.409  17.701  1.00  0.00     0.096 C 
HETATM   12  C   UNL     1       8.377  19.389  20.660  1.00  0.00     0.072 C 
ENDROOT
BRANCH  11  13
HETATM   13  C   UNL     1       8.806  17.744  16.392  1.00  0.00     0.052 C 
HETATM   14  C   UNL     1       7.719  16.816  15.808  1.00  0.00     0.038 C 
HETATM   15  C   UNL     1       8.194  15.367  15.867  1.00  0.00     0.018 C 
HETATM   16  C   UNL     1       7.551  17.231  14.387  1.00  0.00    -0.044 C 
HETATM   17  C   UNL     1       9.660  15.390  16.244  1.00  0.00     0.080 C 
HETATM   18  C   UNL     1       9.950  16.799  16.667  1.00  0.00     0.138 C 
HETATM   19  O   UNL     1      10.989  17.132  17.179  1.00  0.00    -0.297 OA
HETATM   20  C   UNL     1       6.898  16.559  13.364  1.00  0.00     0.044 C 
HETATM   21  C   UNL     1       8.247  18.390  14.126  1.00  0.00    -0.050 C 
HETATM   22  C   UNL     1       6.930  17.124  12.087  1.00  0.00     0.066 C 
HETATM   23  C   UNL     1       7.315  18.442  11.935  1.00  0.00     0.037 C 
HETATM   24  C   UNL     1       8.089  19.052  12.923  1.00  0.00     0.010 C 
HETATM   25  C   UNL     1       9.162  18.746  15.263  1.00  0.00     0.059 C 
BRANCH  22  26
HETATM   26  O   UNL     1       6.721  16.381  10.961  1.00  0.00    -0.361 OA
ATOM     27  HO  UNL     1       6.087  15.673  10.934  1.00  0.00     0.217 HD
ENDBRANCH  22  26
ENDBRANCH  11  13
BRANCH   5  28
HETATM   28  O   UNL     1      10.115  17.864  20.121  1.00  0.00    -0.371 OA
ATOM     29  HO  UNL     1       9.539  17.197  19.767  1.00  0.00     0.212 HD
ENDBRANCH   5  28
BRANCH   1  30
HETATM   30  O   UNL     1      10.440  22.028  21.907  1.00  0.00    -0.393 OA
ATOM     31  HO  UNL     1      11.099  22.450  21.369  1.00  0.00     0.210 HD
ENDBRANCH   1  30
BRANCH   6  32
HETATM   32  O   UNL     1       8.282  20.169  22.996  1.00  0.00    -0.392 OA
ATOM     33  HO  UNL     1       7.856  20.913  23.407  1.00  0.00     0.210 HD
ENDBRANCH   6  32
TORSDOF 5
ENDMDL
