MODEL 1
REMARK VINA RESULT:      -8.4      0.000      0.000
REMARK  4 active torsions:
REMARK  status: ('A' for Active; 'I' for Inactive)
REMARK    1  A    between atoms: C_3  and  C_14 
REMARK    2  A    between atoms: O_5  and  C_16 
REMARK    3  A    between atoms: O_11  and  C_18 
REMARK    4  A    between atoms: C_14  and  C_26 
ROOT
HETATM    1  C   UNL     1      93.087  11.759 133.260  1.00  0.00     0.085 A 
HETATM    2  C   UNL     1      94.372  15.613 132.785  1.00  0.00     0.183 C 
HETATM    3  C   UNL     1      92.424  14.216 132.874  1.00  0.00     0.254 C 
HETATM    4  C   UNL     1      95.456  12.316 133.562  1.00  0.00     0.100 A 
HETATM    5  O   UNL     1      91.212  14.114 132.721  1.00  0.00    -0.268 OA
HETATM    6  C   UNL     1      96.378  11.855 134.660  1.00  0.00     0.135 C 
HETATM    7  C   UNL     1      94.497  11.176 133.238  1.00  0.00     0.074 A 
HETATM    8  C   UNL     1      93.275  13.218 133.461  1.00  0.00     0.036 A 
HETATM    9  N   UNL     1      95.110  14.762 133.498  1.00  0.00    -0.355 N 
ATOM     10  HN  UNL     1      96.020  15.031 133.872  1.00  0.00     0.166 HD
HETATM   11  C   UNL     1      94.706  10.126 134.310  1.00  0.00     0.046 C 
HETATM   12  N   UNL     1      93.154  15.271 132.304  1.00  0.00    -0.319 N 
ATOM     13  HN  UNL     1      92.761  15.787 131.517  1.00  0.00     0.169 HD
HETATM   14  C   UNL     1      94.603  13.529 133.705  1.00  0.00     0.031 A 
HETATM   15  C   UNL     1      96.076  10.379 134.920  1.00  0.00     0.022 C 
ENDROOT
BRANCH  15  16
HETATM   16  C   UNL     1      97.132   9.599 134.114  1.00  0.00     0.045 C 
BRANCH  16  17
HETATM   17  C   UNL     1      97.689   8.451 134.908  1.00  0.00    -0.058 A 
HETATM   18  C   UNL     1      98.871   8.594 135.619  1.00  0.00     0.007 A 
HETATM   19  C   UNL     1      99.448   7.506 136.264  1.00  0.00     0.001 A 
HETATM   20  C   UNL     1      98.773   6.294 136.315  1.00  0.00     0.000 A 
HETATM   21  C   UNL     1      97.578   6.156 135.634  1.00  0.00     0.001 A 
HETATM   22  C   UNL     1      97.049   7.219 134.912  1.00  0.00     0.007 A 
ENDBRANCH  16  17
ENDBRANCH  15  16
BRANCH   6  23
HETATM   23  O   UNL     1      96.236  12.607 135.849  1.00  0.00    -0.394 OA
ATOM     24  HO  UNL     1      95.417  13.085 135.888  1.00  0.00     0.210 HD
ENDBRANCH   6  23
BRANCH   7  25
HETATM   25  O   UNL     1      94.799  10.663 131.939  1.00  0.00    -0.389 OA
ATOM     26  HO  UNL     1      95.546  11.121 131.571  1.00  0.00     0.210 HD
ENDBRANCH   7  25
TORSDOF 4
ENDMDL
MODEL 2
REMARK VINA RESULT:      -8.3      0.377      1.070
REMARK  4 active torsions:
REMARK  status: ('A' for Active; 'I' for Inactive)
REMARK    1  A    between atoms: C_3  and  C_14 
REMARK    2  A    between atoms: O_5  and  C_16 
REMARK    3  A    between atoms: O_11  and  C_18 
REMARK    4  A    between atoms: C_14  and  C_26 
ROOT
HETATM    1  C   UNL     1      92.807  11.705 133.367  1.00  0.00     0.085 A 
HETATM    2  C   UNL     1      94.430  15.384 132.613  1.00  0.00     0.183 C 
HETATM    3  C   UNL     1      92.366  14.206 132.943  1.00  0.00     0.254 C 
HETATM    4  C   UNL     1      95.239  12.016 133.423  1.00  0.00     0.100 A 
HETATM    5  O   UNL     1      91.141  14.229 132.908  1.00  0.00    -0.268 OA
HETATM    6  C   UNL     1      96.212  11.494 134.447  1.00  0.00     0.135 C 
HETATM    7  C   UNL     1      94.141  10.975 133.237  1.00  0.00     0.074 A 
HETATM    8  C   UNL     1      93.164  13.142 133.489  1.00  0.00     0.036 A 
HETATM    9  N   UNL     1      95.143  14.481 133.289  1.00  0.00    -0.355 N 
ATOM     10  HN  UNL     1      96.107  14.664 133.565  1.00  0.00     0.166 HD
HETATM   11  C   UNL     1      94.344   9.943 134.327  1.00  0.00     0.046 C 
HETATM   12  N   UNL     1      93.142  15.159 132.263  1.00  0.00    -0.319 N 
ATOM     13  HN  UNL     1      92.729  15.689 131.496  1.00  0.00     0.169 HD
HETATM   14  C   UNL     1      94.533  13.317 133.594  1.00  0.00     0.031 A 
HETATM   15  C   UNL     1      95.786  10.068 134.795  1.00  0.00     0.022 C 
ENDROOT
BRANCH  15  16
HETATM   16  C   UNL     1      96.672   9.155 133.927  1.00  0.00     0.045 C 
BRANCH  16  17
HETATM   17  C   UNL     1      97.529   8.256 134.774  1.00  0.00    -0.058 A 
HETATM   18  C   UNL     1      97.178   6.930 134.972  1.00  0.00     0.007 A 
HETATM   19  C   UNL     1      97.905   6.124 135.841  1.00  0.00     0.001 A 
HETATM   20  C   UNL     1      99.073   6.606 136.417  1.00  0.00     0.000 A 
HETATM   21  C   UNL     1      99.444   7.918 136.197  1.00  0.00     0.001 A 
HETATM   22  C   UNL     1      98.665   8.750 135.401  1.00  0.00     0.007 A 
ENDBRANCH  16  17
ENDBRANCH  15  16
BRANCH   6  23
HETATM   23  O   UNL     1      96.265  12.294 135.612  1.00  0.00    -0.394 OA
ATOM     24  HO  UNL     1      96.534  11.807 136.382  1.00  0.00     0.210 HD
ENDBRANCH   6  23
BRANCH   7  25
HETATM   25  O   UNL     1      94.260  10.393 131.939  1.00  0.00    -0.389 OA
ATOM     26  HO  UNL     1      93.498  10.604 131.412  1.00  0.00     0.210 HD
ENDBRANCH   7  25
TORSDOF 4
ENDMDL
MODEL 3
REMARK VINA RESULT:      -8.2      3.441      7.347
REMARK  4 active torsions:
REMARK  status: ('A' for Active; 'I' for Inactive)
REMARK    1  A    between atoms: C_3  and  C_14 
REMARK    2  A    between atoms: O_5  and  C_16 
REMARK    3  A    between atoms: O_11  and  C_18 
REMARK    4  A    between atoms: C_14  and  C_26 
ROOT
HETATM    1  C   UNL     1      96.479   7.432 133.139  1.00  0.00     0.085 A 
HETATM    2  C   UNL     1      98.993   6.585 136.254  1.00  0.00     0.183 C 
HETATM    3  C   UNL     1      98.105   5.736 134.193  1.00  0.00     0.254 C 
HETATM    4  C   UNL     1      96.974   9.142 134.827  1.00  0.00     0.100 A 
HETATM    5  O   UNL     1      97.990   4.788 133.425  1.00  0.00    -0.268 OA
HETATM    6  C   UNL     1      97.302  10.594 134.598  1.00  0.00     0.135 C 
HETATM    7  C   UNL     1      95.954   8.716 133.776  1.00  0.00     0.074 A 
HETATM    8  C   UNL     1      97.697   7.087 133.915  1.00  0.00     0.036 A 
HETATM    9  N   UNL     1      98.785   7.857 135.909  1.00  0.00    -0.355 N 
ATOM     10  HN  UNL     1      99.186   8.625 136.446  1.00  0.00     0.166 HD
HETATM   11  C   UNL     1      95.860   9.858 132.785  1.00  0.00     0.046 C 
HETATM   12  N   UNL     1      98.483   5.559 135.534  1.00  0.00    -0.319 N 
ATOM     13  HN  UNL     1      98.373   4.644 135.970  1.00  0.00     0.169 HD
HETATM   14  C   UNL     1      98.022   8.084 134.820  1.00  0.00     0.031 A 
HETATM   15  C   UNL     1      96.381  11.102 133.489  1.00  0.00     0.022 C 
ENDROOT
BRANCH  15  16
HETATM   16  C   UNL     1      95.210  11.789 134.215  1.00  0.00     0.045 C 
BRANCH  16  17
HETATM   17  C   UNL     1      94.749  13.013 133.474  1.00  0.00    -0.058 A 
HETATM   18  C   UNL     1      95.310  14.252 133.741  1.00  0.00     0.007 A 
HETATM   19  C   UNL     1      94.813  15.402 133.139  1.00  0.00     0.001 A 
HETATM   20  C   UNL     1      93.835  15.303 132.159  1.00  0.00     0.000 A 
HETATM   21  C   UNL     1      93.294  14.066 131.866  1.00  0.00     0.001 A 
HETATM   22  C   UNL     1      93.728  12.928 132.536  1.00  0.00     0.007 A 
ENDBRANCH  16  17
ENDBRANCH  15  16
BRANCH   6  23
HETATM   23  O   UNL     1      98.657  10.803 134.252  1.00  0.00    -0.394 OA
ATOM     24  HO  UNL     1      99.229  10.113 134.567  1.00  0.00     0.210 HD
ENDBRANCH   6  23
BRANCH   7  25
HETATM   25  O   UNL     1      94.698   8.473 134.412  1.00  0.00    -0.389 OA
ATOM     26  HO  UNL     1      94.117   9.213 134.284  1.00  0.00     0.210 HD
ENDBRANCH   7  25
TORSDOF 4
ENDMDL
MODEL 4
REMARK VINA RESULT:      -8.2      3.459      7.584
REMARK  4 active torsions:
REMARK  status: ('A' for Active; 'I' for Inactive)
REMARK    1  A    between atoms: C_3  and  C_14 
REMARK    2  A    between atoms: O_5  and  C_16 
REMARK    3  A    between atoms: O_11  and  C_18 
REMARK    4  A    between atoms: C_14  and  C_26 
ROOT
HETATM    1  C   UNL     1      99.145   9.147 135.186  1.00  0.00     0.085 A 
HETATM    2  C   UNL     1      97.131   5.589 135.314  1.00  0.00     0.183 C 
HETATM    3  C   UNL     1      99.125   6.715 136.030  1.00  0.00     0.254 C 
HETATM    4  C   UNL     1      96.874   8.980 134.274  1.00  0.00     0.100 A 
HETATM    5  O   UNL     1     100.229   6.637 136.555  1.00  0.00    -0.268 OA
HETATM    6  C   UNL     1      95.733   9.946 134.460  1.00  0.00     0.135 C 
HETATM    7  C   UNL     1      98.168   9.784 134.201  1.00  0.00     0.074 A 
HETATM    8  C   UNL     1      98.448   7.938 135.694  1.00  0.00     0.036 A 
HETATM    9  N   UNL     1      96.443   6.725 135.185  1.00  0.00    -0.355 N 
ATOM     10  HN  UNL     1      95.432   6.721 135.050  1.00  0.00     0.166 HD
HETATM   11  C   UNL     1      97.808  11.206 134.579  1.00  0.00     0.046 C 
HETATM   12  N   UNL     1      98.469   5.585 135.516  1.00  0.00    -0.319 N 
ATOM     13  HN  UNL     1      99.009   4.749 135.292  1.00  0.00     0.169 HD
HETATM   14  C   UNL     1      97.141   7.878 135.239  1.00  0.00     0.031 A 
HETATM   15  C   UNL     1      96.310  11.358 134.365  1.00  0.00     0.022 C 
ENDROOT
BRANCH  15  16
HETATM   16  C   UNL     1      96.059  11.804 132.912  1.00  0.00     0.045 C 
BRANCH  16  17
HETATM   17  C   UNL     1      95.149  12.999 132.856  1.00  0.00    -0.058 A 
HETATM   18  C   UNL     1      93.935  12.931 132.190  1.00  0.00     0.007 A 
HETATM   19  C   UNL     1      93.141  14.062 132.041  1.00  0.00     0.001 A 
HETATM   20  C   UNL     1      93.494  15.244 132.678  1.00  0.00     0.000 A 
HETATM   21  C   UNL     1      94.688  15.309 133.370  1.00  0.00     0.001 A 
HETATM   22  C   UNL     1      95.526  14.202 133.439  1.00  0.00     0.007 A 
ENDBRANCH  16  17
ENDBRANCH  15  16
BRANCH   6  23
HETATM   23  O   UNL     1      95.057   9.768 135.689  1.00  0.00    -0.394 OA
ATOM     24  HO  UNL     1      94.113   9.811 135.601  1.00  0.00     0.210 HD
ENDBRANCH   6  23
BRANCH   7  25
HETATM   25  O   UNL     1      98.690   9.713 132.874  1.00  0.00    -0.389 OA
ATOM     26  HO  UNL     1      99.401  10.334 132.767  1.00  0.00     0.210 HD
ENDBRANCH   7  25
TORSDOF 4
ENDMDL
MODEL 5
REMARK VINA RESULT:      -8.1      1.481      2.575
REMARK  4 active torsions:
REMARK  status: ('A' for Active; 'I' for Inactive)
REMARK    1  A    between atoms: C_3  and  C_14 
REMARK    2  A    between atoms: O_5  and  C_16 
REMARK    3  A    between atoms: O_11  and  C_18 
REMARK    4  A    between atoms: C_14  and  C_26 
ROOT
HETATM    1  C   UNL     1      96.194  13.577 133.639  1.00  0.00     0.085 A 
HETATM    2  C   UNL     1      92.182  13.759 132.860  1.00  0.00     0.183 C 
HETATM    3  C   UNL     1      94.229  15.007 132.788  1.00  0.00     0.254 C 
HETATM    4  C   UNL     1      94.806  11.563 133.831  1.00  0.00     0.100 A 
HETATM    5  O   UNL     1      94.780  16.088 132.614  1.00  0.00    -0.268 OA
HETATM    6  C   UNL     1      95.119  10.178 133.330  1.00  0.00     0.135 C 
HETATM    7  C   UNL     1      96.109  12.203 134.299  1.00  0.00     0.074 A 
HETATM    8  C   UNL     1      94.901  13.743 132.928  1.00  0.00     0.036 A 
HETATM    9  N   UNL     1      92.807  12.582 132.798  1.00  0.00    -0.355 N 
ATOM     10  HN  UNL     1      92.295  11.717 132.626  1.00  0.00     0.166 HD
HETATM   11  C   UNL     1      97.222  11.277 133.854  1.00  0.00     0.046 C 
HETATM   12  N   UNL     1      92.856  14.914 133.066  1.00  0.00    -0.319 N 
ATOM     13  HN  UNL     1      92.360  15.729 133.427  1.00  0.00     0.169 HD
HETATM   14  C   UNL     1      94.145  12.584 132.972  1.00  0.00     0.031 A 
HETATM   15  C   UNL     1      96.597   9.911 133.616  1.00  0.00     0.022 C 
ENDROOT
BRANCH  15  16
HETATM   16  C   UNL     1      96.620   9.117 134.935  1.00  0.00     0.045 C 
BRANCH  16  17
HETATM   17  C   UNL     1      97.073   7.700 134.713  1.00  0.00    -0.058 A 
HETATM   18  C   UNL     1      98.023   7.126 135.543  1.00  0.00     0.007 A 
HETATM   19  C   UNL     1      98.525   5.857 135.277  1.00  0.00     0.001 A 
HETATM   20  C   UNL     1      97.979   5.098 134.251  1.00  0.00     0.000 A 
HETATM   21  C   UNL     1      97.010   5.655 133.439  1.00  0.00     0.001 A 
HETATM   22  C   UNL     1      96.575   6.958 133.650  1.00  0.00     0.007 A 
ENDBRANCH  16  17
ENDBRANCH  15  16
BRANCH   6  23
HETATM   23  O   UNL     1      94.843  10.016 131.953  1.00  0.00    -0.394 OA
ATOM     24  HO  UNL     1      94.880   9.109 131.673  1.00  0.00     0.210 HD
ENDBRANCH   6  23
BRANCH   7  25
HETATM   25  O   UNL     1      96.081  12.340 135.721  1.00  0.00    -0.389 OA
ATOM     26  HO  UNL     1      96.675  13.028 135.996  1.00  0.00     0.210 HD
ENDBRANCH   7  25
TORSDOF 4
ENDMDL
MODEL 6
REMARK VINA RESULT:      -7.9      1.981      3.275
REMARK  4 active torsions:
REMARK  status: ('A' for Active; 'I' for Inactive)
REMARK    1  A    between atoms: C_3  and  C_14 
REMARK    2  A    between atoms: O_5  and  C_16 
REMARK    3  A    between atoms: O_11  and  C_18 
REMARK    4  A    between atoms: C_14  and  C_26 
ROOT
HETATM    1  C   UNL     1      96.093  13.435 133.820  1.00  0.00     0.085 A 
HETATM    2  C   UNL     1      92.132  13.514 132.802  1.00  0.00     0.183 C 
HETATM    3  C   UNL     1      94.139  14.825 132.884  1.00  0.00     0.254 C 
HETATM    4  C   UNL     1      94.761  11.376 133.882  1.00  0.00     0.100 A 
HETATM    5  O   UNL     1      94.665  15.927 132.769  1.00  0.00    -0.268 OA
HETATM    6  C   UNL     1      95.147  10.013 133.369  1.00  0.00     0.135 C 
HETATM    7  C   UNL     1      96.012  12.043 134.443  1.00  0.00     0.074 A 
HETATM    8  C   UNL     1      94.840  13.580 133.035  1.00  0.00     0.036 A 
HETATM    9  N   UNL     1      92.796  12.359 132.752  1.00  0.00    -0.355 N 
ATOM     10  HN  UNL     1      92.323  11.483 132.529  1.00  0.00     0.166 HD
HETATM   11  C   UNL     1      97.179  11.163 134.045  1.00  0.00     0.046 C 
HETATM   12  N   UNL     1      92.755  14.684 133.075  1.00  0.00    -0.319 N 
ATOM     13  HN  UNL     1      92.212  15.474 133.424  1.00  0.00     0.169 HD
HETATM   14  C   UNL     1      94.120  12.397 133.007  1.00  0.00     0.031 A 
HETATM   15  C   UNL     1      96.613   9.785 133.738  1.00  0.00     0.022 C 
ENDROOT
BRANCH  15  16
HETATM   16  C   UNL     1      96.582   8.959 135.037  1.00  0.00     0.045 C 
BRANCH  16  17
HETATM   17  C   UNL     1      95.484   7.932 135.008  1.00  0.00    -0.058 A 
HETATM   18  C   UNL     1      95.519   6.890 134.094  1.00  0.00     0.007 A 
HETATM   19  C   UNL     1      94.454   6.002 133.989  1.00  0.00     0.001 A 
HETATM   20  C   UNL     1      93.403   6.071 134.893  1.00  0.00     0.000 A 
HETATM   21  C   UNL     1      93.379   7.089 135.826  1.00  0.00     0.001 A 
HETATM   22  C   UNL     1      94.400   8.032 135.870  1.00  0.00     0.007 A 
ENDBRANCH  16  17
ENDBRANCH  15  16
BRANCH   6  23
HETATM   23  O   UNL     1      94.959   9.878 131.974  1.00  0.00    -0.394 OA
ATOM     24  HO  UNL     1      94.905   8.971 131.696  1.00  0.00     0.210 HD
ENDBRANCH   6  23
BRANCH   7  25
HETATM   25  O   UNL     1      95.894  12.144 135.862  1.00  0.00    -0.389 OA
ATOM     26  HO  UNL     1      95.867  11.278 136.252  1.00  0.00     0.210 HD
ENDBRANCH   7  25
TORSDOF 4
ENDMDL
MODEL 7
REMARK VINA RESULT:      -7.9      3.671      7.595
REMARK  4 active torsions:
REMARK  status: ('A' for Active; 'I' for Inactive)
REMARK    1  A    between atoms: C_3  and  C_14 
REMARK    2  A    between atoms: O_5  and  C_16 
REMARK    3  A    between atoms: O_11  and  C_18 
REMARK    4  A    between atoms: C_14  and  C_26 
ROOT
HETATM    1  C   UNL     1      97.953   8.056 134.851  1.00  0.00     0.085 A 
HETATM    2  C   UNL     1      96.732   5.047 132.364  1.00  0.00     0.183 C 
HETATM    3  C   UNL     1      97.889   5.520 134.412  1.00  0.00     0.254 C 
HETATM    4  C   UNL     1      96.511   8.551 132.931  1.00  0.00     0.100 A 
HETATM    5  O   UNL     1      98.574   5.100 135.337  1.00  0.00    -0.268 OA
HETATM    6  C   UNL     1      95.298   9.444 132.895  1.00  0.00     0.135 C 
HETATM    7  C   UNL     1      97.522   9.163 133.894  1.00  0.00     0.074 A 
HETATM    8  C   UNL     1      97.294   6.827 134.342  1.00  0.00     0.036 A 
HETATM    9  N   UNL     1      96.036   6.185 132.404  1.00  0.00    -0.355 N 
ATOM     10  HN  UNL     1      95.246   6.347 131.779  1.00  0.00     0.166 HD
HETATM   11  C   UNL     1      96.805  10.294 134.602  1.00  0.00     0.046 C 
HETATM   12  N   UNL     1      97.767   4.814 133.204  1.00  0.00    -0.319 N 
ATOM     13  HN  UNL     1      98.469   4.117 132.956  1.00  0.00     0.169 HD
HETATM   14  C   UNL     1      96.422   7.112 133.304  1.00  0.00     0.031 A 
HETATM   15  C   UNL     1      95.617  10.681 133.734  1.00  0.00     0.022 C 
ENDROOT
BRANCH  15  16
HETATM   16  C   UNL     1      96.067  11.753 132.725  1.00  0.00     0.045 C 
BRANCH  16  17
HETATM   17  C   UNL     1      95.129  12.928 132.720  1.00  0.00    -0.058 A 
HETATM   18  C   UNL     1      93.933  12.872 132.021  1.00  0.00     0.007 A 
HETATM   19  C   UNL     1      93.114  13.992 131.923  1.00  0.00     0.001 A 
HETATM   20  C   UNL     1      93.424  15.140 132.638  1.00  0.00     0.000 A 
HETATM   21  C   UNL     1      94.599  15.190 133.362  1.00  0.00     0.001 A 
HETATM   22  C   UNL     1      95.463  14.101 133.385  1.00  0.00     0.007 A 
ENDBRANCH  16  17
ENDBRANCH  15  16
BRANCH   6  23
HETATM   23  O   UNL     1      94.132   8.805 133.376  1.00  0.00    -0.394 OA
ATOM     24  HO  UNL     1      93.351   9.051 132.893  1.00  0.00     0.210 HD
ENDBRANCH   6  23
BRANCH   7  25
HETATM   25  O   UNL     1      98.646   9.641 133.154  1.00  0.00    -0.389 OA
ATOM     26  HO  UNL     1      98.356  10.102 132.376  1.00  0.00     0.210 HD
ENDBRANCH   7  25
TORSDOF 4
ENDMDL
MODEL 8
REMARK VINA RESULT:      -7.9      3.554      7.533
REMARK  4 active torsions:
REMARK  status: ('A' for Active; 'I' for Inactive)
REMARK    1  A    between atoms: C_3  and  C_14 
REMARK    2  A    between atoms: O_5  and  C_16 
REMARK    3  A    between atoms: O_11  and  C_18 
REMARK    4  A    between atoms: C_14  and  C_26 
ROOT
HETATM    1  C   UNL     1      95.993   6.376 133.707  1.00  0.00     0.085 A 
HETATM    2  C   UNL     1      99.241   7.186 136.059  1.00  0.00     0.183 C 
HETATM    3  C   UNL     1      98.210   5.508 134.689  1.00  0.00     0.254 C 
HETATM    4  C   UNL     1      96.337   8.634 134.601  1.00  0.00     0.100 A 
HETATM    5  O   UNL     1      98.204   4.346 134.299  1.00  0.00    -0.268 OA
HETATM    6  C   UNL     1      96.194   9.944 133.874  1.00  0.00     0.135 C 
HETATM    7  C   UNL     1      95.279   7.676 134.066  1.00  0.00     0.074 A 
HETATM    8  C   UNL     1      97.395   6.568 134.160  1.00  0.00     0.036 A 
HETATM    9  N   UNL     1      98.620   8.188 135.434  1.00  0.00    -0.355 N 
ATOM     10  HN  UNL     1      98.896   9.159 135.583  1.00  0.00     0.166 HD
HETATM   11  C   UNL     1      94.665   8.352 132.857  1.00  0.00     0.046 C 
HETATM   12  N   UNL     1      98.896   5.894 135.851  1.00  0.00    -0.319 N 
ATOM     13  HN  UNL     1      99.139   5.190 136.549  1.00  0.00     0.169 HD
HETATM   14  C   UNL     1      97.612   7.863 134.598  1.00  0.00     0.031 A 
HETATM   15  C   UNL     1      94.956   9.839 132.983  1.00  0.00     0.022 C 
ENDROOT
BRANCH  15  16
HETATM   16  C   UNL     1      93.820  10.501 133.785  1.00  0.00     0.045 C 
BRANCH  16  17
HETATM   17  C   UNL     1      93.182  11.620 133.009  1.00  0.00    -0.058 A 
HETATM   18  C   UNL     1      93.472  11.802 131.666  1.00  0.00     0.007 A 
HETATM   19  C   UNL     1      92.972  12.898 130.972  1.00  0.00     0.001 A 
HETATM   20  C   UNL     1      92.065  13.750 131.587  1.00  0.00     0.000 A 
HETATM   21  C   UNL     1      91.747  13.555 132.917  1.00  0.00     0.001 A 
HETATM   22  C   UNL     1      92.321  12.512 133.635  1.00  0.00     0.007 A 
ENDBRANCH  16  17
ENDBRANCH  15  16
BRANCH   6  23
HETATM   23  O   UNL     1      97.333  10.273 133.103  1.00  0.00    -0.394 OA
ATOM     24  HO  UNL     1      98.035   9.640 133.194  1.00  0.00     0.210 HD
ENDBRANCH   6  23
BRANCH   7  25
HETATM   25  O   UNL     1      94.303   7.438 135.082  1.00  0.00    -0.389 OA
ATOM     26  HO  UNL     1      94.710   7.035 135.840  1.00  0.00     0.210 HD
ENDBRANCH   7  25
TORSDOF 4
ENDMDL
MODEL 9
REMARK VINA RESULT:      -7.4      1.491      2.099
REMARK  4 active torsions:
REMARK  status: ('A' for Active; 'I' for Inactive)
REMARK    1  A    between atoms: C_3  and  C_14 
REMARK    2  A    between atoms: O_5  and  C_16 
REMARK    3  A    between atoms: O_11  and  C_18 
REMARK    4  A    between atoms: C_14  and  C_26 
ROOT
HETATM    1  C   UNL     1      92.804  11.801 133.392  1.00  0.00     0.085 A 
HETATM    2  C   UNL     1      94.404  15.509 132.740  1.00  0.00     0.183 C 
HETATM    3  C   UNL     1      92.345  14.297 132.956  1.00  0.00     0.254 C 
HETATM    4  C   UNL     1      95.225  12.151 133.576  1.00  0.00     0.100 A 
HETATM    5  O   UNL     1      91.124  14.300 132.857  1.00  0.00    -0.268 OA
HETATM    6  C   UNL     1      96.151  11.639 134.648  1.00  0.00     0.135 C 
HETATM    7  C   UNL     1      94.155  11.093 133.329  1.00  0.00     0.074 A 
HETATM    8  C   UNL     1      93.130  13.242 133.538  1.00  0.00     0.036 A 
HETATM    9  N   UNL     1      95.095  14.614 133.448  1.00  0.00    -0.355 N 
ATOM     10  HN  UNL     1      96.041  14.811 133.775  1.00  0.00     0.166 HD
HETATM   11  C   UNL     1      94.317  10.059 134.424  1.00  0.00     0.046 C 
HETATM   12  N   UNL     1      93.140  15.265 132.322  1.00  0.00    -0.319 N 
ATOM     13  HN  UNL     1      92.760  15.792 131.536  1.00  0.00     0.169 HD
HETATM   14  C   UNL     1      94.490  13.439 133.715  1.00  0.00     0.031 A 
HETATM   15  C   UNL     1      95.731  10.204 134.968  1.00  0.00     0.022 C 
ENDROOT
BRANCH  15  16
HETATM   16  C   UNL     1      96.675   9.310 134.143  1.00  0.00     0.045 C 
BRANCH  16  17
HETATM   17  C   UNL     1      96.038   7.986 133.827  1.00  0.00    -0.058 A 
HETATM   18  C   UNL     1      95.942   7.544 132.516  1.00  0.00     0.007 A 
HETATM   19  C   UNL     1      95.258   6.374 132.209  1.00  0.00     0.001 A 
HETATM   20  C   UNL     1      94.779   5.564 133.229  1.00  0.00     0.000 A 
HETATM   21  C   UNL     1      94.900   5.984 134.540  1.00  0.00     0.001 A 
HETATM   22  C   UNL     1      95.503   7.200 134.840  1.00  0.00     0.007 A 
ENDBRANCH  16  17
ENDBRANCH  15  16
BRANCH   6  23
HETATM   23  O   UNL     1      96.130  12.434 135.818  1.00  0.00    -0.394 OA
ATOM     24  HO  UNL     1      95.537  13.173 135.751  1.00  0.00     0.210 HD
ENDBRANCH   6  23
BRANCH   7  25
HETATM   25  O   UNL     1      94.351  10.519 132.036  1.00  0.00    -0.389 OA
ATOM     26  HO  UNL     1      94.587  11.193 131.410  1.00  0.00     0.210 HD
ENDBRANCH   7  25
TORSDOF 4
ENDMDL
