MODEL 1
REMARK VINA RESULT:      -7.9      0.000      0.000
REMARK  3 active torsions:
REMARK  status: ('A' for Active; 'I' for Inactive)
REMARK    1  A    between atoms: C_4  and  C_14 
REMARK       I    between atoms: N_5  and  C_11 
REMARK    2  A    between atoms: C_11  and  C_16 
REMARK    3  A    between atoms: C_14  and  C_15 
ROOT
HETATM    1  C   UNL     1       2.981  17.403   2.326  1.00  0.00     0.246 C 
HETATM    2  N   UNL     1       2.308  18.411   1.658  1.00  0.00    -0.319 N 
ATOM      3  HN  UNL     1       2.691  19.356   1.650  1.00  0.00     0.169 HD
HETATM    4  C   UNL     1       2.245  16.230   2.654  1.00  0.00     0.086 C 
HETATM    5  C   UNL     1       0.664  16.844   0.972  1.00  0.00     0.047 C 
HETATM    6  O   UNL     1       3.982  17.731   3.002  1.00  0.00    -0.268 OA
HETATM    7  C   UNL     1       0.991  16.051   2.075  1.00  0.00    -0.022 C 
HETATM    8  C   UNL     1       1.125  18.147   1.003  1.00  0.00     0.104 C 
ENDROOT
BRANCH   8   9
HETATM    9  C   UNL     1       0.424  19.202   0.231  1.00  0.00     0.266 C 
HETATM   10  O   UNL     1      -0.462  19.866   0.769  1.00  0.00    -0.266 OA
HETATM   11  N   UNL     1       0.375  19.043  -1.112  1.00  0.00    -0.365 N 
ATOM     12  HN2 UNL     1      -0.107  19.768  -1.644  1.00  0.00     0.159 HD
ATOM     13  HN1 UNL     1       1.109  18.493  -1.559  1.00  0.00     0.159 HD
ENDBRANCH   8   9
BRANCH   7  14
HETATM   14  C   UNL     1      -0.019  15.067   2.462  1.00  0.00     0.096 C 
BRANCH  14  15
HETATM   15  C   UNL     1      -0.287  13.806   1.736  1.00  0.00     0.199 C 
HETATM   16  O   UNL     1      -0.954  13.846   0.671  1.00  0.00    -0.644 OA
HETATM   17  O   UNL     1       0.162  12.741   2.227  1.00  0.00    -0.644 OA
ENDBRANCH  14  15
ENDBRANCH   7  14
TORSDOF 3
ENDMDL
MODEL 2
REMARK VINA RESULT:      -7.4      1.527      3.841
REMARK  3 active torsions:
REMARK  status: ('A' for Active; 'I' for Inactive)
REMARK    1  A    between atoms: C_4  and  C_14 
REMARK       I    between atoms: N_5  and  C_11 
REMARK    2  A    between atoms: C_11  and  C_16 
REMARK    3  A    between atoms: C_14  and  C_15 
ROOT
HETATM    1  C   UNL     1      -0.464  14.687   1.236  1.00  0.00     0.246 C 
HETATM    2  N   UNL     1      -0.548  15.862   0.511  1.00  0.00    -0.319 N 
ATOM      3  HN  UNL     1      -1.132  15.900  -0.324  1.00  0.00     0.169 HD
HETATM    4  C   UNL     1       0.634  14.546   2.131  1.00  0.00     0.086 C 
HETATM    5  C   UNL     1       0.880  16.922   2.080  1.00  0.00     0.047 C 
HETATM    6  O   UNL     1      -1.023  13.675   0.758  1.00  0.00    -0.268 OA
HETATM    7  C   UNL     1       1.405  15.671   2.415  1.00  0.00    -0.022 C 
HETATM    8  C   UNL     1       0.151  16.981   0.908  1.00  0.00     0.104 C 
ENDROOT
BRANCH   8   9
HETATM    9  C   UNL     1       0.023  18.265   0.176  1.00  0.00     0.266 C 
HETATM   10  O   UNL     1       0.574  19.275   0.614  1.00  0.00    -0.266 OA
HETATM   11  N   UNL     1      -1.083  18.422  -0.589  1.00  0.00    -0.365 N 
ATOM     12  HN2 UNL     1      -1.171  19.305  -1.093  1.00  0.00     0.159 HD
ATOM     13  HN1 UNL     1      -1.539  17.586  -0.953  1.00  0.00     0.159 HD
ENDBRANCH   8   9
BRANCH   7  14
HETATM   14  C   UNL     1       2.703  15.695   3.089  1.00  0.00     0.096 C 
BRANCH  14  15
HETATM   15  C   UNL     1       3.869  16.486   2.640  1.00  0.00     0.199 C 
HETATM   16  O   UNL     1       3.954  17.693   2.978  1.00  0.00    -0.644 OA
HETATM   17  O   UNL     1       4.726  15.910   1.924  1.00  0.00    -0.644 OA
ENDBRANCH  14  15
ENDBRANCH   7  14
TORSDOF 3
ENDMDL
MODEL 3
REMARK VINA RESULT:      -7.4      1.876      4.318
REMARK  3 active torsions:
REMARK  status: ('A' for Active; 'I' for Inactive)
REMARK    1  A    between atoms: C_4  and  C_14 
REMARK       I    between atoms: N_5  and  C_11 
REMARK    2  A    between atoms: C_11  and  C_16 
REMARK    3  A    between atoms: C_14  and  C_15 
ROOT
HETATM    1  C   UNL     1       2.844  15.861   2.601  1.00  0.00     0.246 C 
HETATM    2  N   UNL     1       1.859  14.968   2.221  1.00  0.00    -0.319 N 
ATOM      3  HN  UNL     1       2.021  13.965   2.315  1.00  0.00     0.169 HD
HETATM    4  C   UNL     1       2.753  17.190   2.099  1.00  0.00     0.086 C 
HETATM    5  C   UNL     1       0.439  16.785   1.664  1.00  0.00     0.047 C 
HETATM    6  O   UNL     1       3.953  15.386   2.936  1.00  0.00    -0.268 OA
HETATM    7  C   UNL     1       1.571  17.583   1.476  1.00  0.00    -0.022 C 
HETATM    8  C   UNL     1       0.660  15.421   1.716  1.00  0.00     0.104 C 
ENDROOT
BRANCH   8   9
HETATM    9  C   UNL     1      -0.429  14.478   1.361  1.00  0.00     0.266 C 
HETATM   10  O   UNL     1      -0.313  13.283   1.631  1.00  0.00    -0.266 OA
HETATM   11  N   UNL     1      -1.218  14.824   0.317  1.00  0.00    -0.365 N 
ATOM     12  HN2 UNL     1      -1.967  14.175   0.073  1.00  0.00     0.159 HD
ATOM     13  HN1 UNL     1      -1.315  15.815   0.094  1.00  0.00     0.159 HD
ENDBRANCH   8   9
BRANCH   7  14
HETATM   14  C   UNL     1       1.362  18.792   0.680  1.00  0.00     0.096 C 
BRANCH  14  15
HETATM   15  C   UNL     1       0.053  19.233   0.150  1.00  0.00     0.199 C 
HETATM   16  O   UNL     1      -0.720  19.882   0.900  1.00  0.00    -0.644 OA
HETATM   17  O   UNL     1      -0.233  18.926  -1.034  1.00  0.00    -0.644 OA
ENDBRANCH  14  15
ENDBRANCH   7  14
TORSDOF 3
ENDMDL
MODEL 4
REMARK VINA RESULT:      -7.3      2.114      4.361
REMARK  3 active torsions:
REMARK  status: ('A' for Active; 'I' for Inactive)
REMARK    1  A    between atoms: C_4  and  C_14 
REMARK       I    between atoms: N_5  and  C_11 
REMARK    2  A    between atoms: C_11  and  C_16 
REMARK    3  A    between atoms: C_14  and  C_15 
ROOT
HETATM    1  C   UNL     1       2.960  17.338   2.670  1.00  0.00     0.246 C 
HETATM    2  N   UNL     1       2.587  16.020   2.856  1.00  0.00    -0.319 N 
ATOM      3  HN  UNL     1       3.223  15.374   3.323  1.00  0.00     0.169 HD
HETATM    4  C   UNL     1       2.250  18.089   1.692  1.00  0.00     0.086 C 
HETATM    5  C   UNL     1       0.490  16.483   1.848  1.00  0.00     0.047 C 
HETATM    6  O   UNL     1       4.131  17.653   2.981  1.00  0.00    -0.268 OA
HETATM    7  C   UNL     1       1.078  17.552   1.167  1.00  0.00    -0.022 C 
HETATM    8  C   UNL     1       1.360  15.572   2.416  1.00  0.00     0.104 C 
ENDROOT
BRANCH   8   9
HETATM    9  C   UNL     1       0.920  14.176   2.662  1.00  0.00     0.266 C 
HETATM   10  O   UNL     1       1.737  13.336   3.038  1.00  0.00    -0.266 OA
HETATM   11  N   UNL     1      -0.165  13.750   1.974  1.00  0.00    -0.365 N 
ATOM     12  HN2 UNL     1      -0.468  12.790   2.143  1.00  0.00     0.159 HD
ATOM     13  HN1 UNL     1      -0.842  14.446   1.663  1.00  0.00     0.159 HD
ENDBRANCH   8   9
BRANCH   7  14
HETATM   14  C   UNL     1       0.346  18.026  -0.007  1.00  0.00     0.096 C 
BRANCH  14  15
HETATM   15  C   UNL     1      -0.905  18.814   0.043  1.00  0.00     0.199 C 
HETATM   16  O   UNL     1      -1.794  18.602  -0.820  1.00  0.00    -0.644 OA
HETATM   17  O   UNL     1      -1.018  19.675   0.951  1.00  0.00    -0.644 OA
ENDBRANCH  14  15
ENDBRANCH   7  14
TORSDOF 3
ENDMDL
MODEL 5
REMARK VINA RESULT:      -7.2      1.248      3.265
REMARK  3 active torsions:
REMARK  status: ('A' for Active; 'I' for Inactive)
REMARK    1  A    between atoms: C_4  and  C_14 
REMARK       I    between atoms: N_5  and  C_11 
REMARK    2  A    between atoms: C_11  and  C_16 
REMARK    3  A    between atoms: C_14  and  C_15 
ROOT
HETATM    1  C   UNL     1       1.149  18.161   0.855  1.00  0.00     0.246 C 
HETATM    2  N   UNL     1       2.430  17.915   1.316  1.00  0.00    -0.319 N 
ATOM      3  HN  UNL     1       3.222  18.394   0.889  1.00  0.00     0.169 HD
HETATM    4  C   UNL     1       0.141  17.211   1.182  1.00  0.00     0.086 C 
HETATM    5  C   UNL     1       1.547  16.444   2.955  1.00  0.00     0.047 C 
HETATM    6  O   UNL     1       1.033  18.881  -0.162  1.00  0.00    -0.268 OA
HETATM    7  C   UNL     1       0.430  16.241   2.139  1.00  0.00    -0.022 C 
HETATM    8  C   UNL     1       2.644  17.028   2.349  1.00  0.00     0.104 C 
ENDROOT
BRANCH   8   9
HETATM    9  C   UNL     1       4.004  16.800   2.895  1.00  0.00     0.266 C 
HETATM   10  O   UNL     1       4.604  17.724   3.443  1.00  0.00    -0.266 OA
HETATM   11  N   UNL     1       4.735  15.816   2.319  1.00  0.00    -0.365 N 
ATOM     12  HN2 UNL     1       5.670  15.659   2.695  1.00  0.00     0.159 HD
ATOM     13  HN1 UNL     1       4.237  15.050   1.866  1.00  0.00     0.159 HD
ENDBRANCH   8   9
BRANCH   7  14
HETATM   14  C   UNL     1      -0.351  15.040   2.433  1.00  0.00     0.096 C 
BRANCH  14  15
HETATM   15  C   UNL     1      -0.411  13.843   1.566  1.00  0.00     0.199 C 
HETATM   16  O   UNL     1      -0.996  13.923   0.456  1.00  0.00    -0.644 OA
HETATM   17  O   UNL     1       0.123  12.788   1.989  1.00  0.00    -0.644 OA
ENDBRANCH  14  15
ENDBRANCH   7  14
TORSDOF 3
ENDMDL
MODEL 6
REMARK VINA RESULT:      -7.1      1.990      2.276
REMARK  3 active torsions:
REMARK  status: ('A' for Active; 'I' for Inactive)
REMARK    1  A    between atoms: C_4  and  C_14 
REMARK       I    between atoms: N_5  and  C_11 
REMARK    2  A    between atoms: C_11  and  C_16 
REMARK    3  A    between atoms: C_14  and  C_15 
ROOT
HETATM    1  C   UNL     1       1.412  18.201   1.007  1.00  0.00     0.246 C 
HETATM    2  N   UNL     1       0.258  18.354   0.261  1.00  0.00    -0.319 N 
ATOM      3  HN  UNL     1       0.051  19.254  -0.172  1.00  0.00     0.169 HD
HETATM    4  C   UNL     1       1.471  17.097   1.904  1.00  0.00     0.086 C 
HETATM    5  C   UNL     1      -0.277  16.074   0.638  1.00  0.00     0.047 C 
HETATM    6  O   UNL     1       2.100  19.225   1.219  1.00  0.00    -0.268 OA
HETATM    7  C   UNL     1       0.497  16.108   1.801  1.00  0.00    -0.022 C 
HETATM    8  C   UNL     1      -0.615  17.301   0.098  1.00  0.00     0.104 C 
ENDROOT
BRANCH   8   9
HETATM    9  C   UNL     1      -1.826  17.432  -0.750  1.00  0.00     0.266 C 
HETATM   10  O   UNL     1      -2.373  18.528  -0.866  1.00  0.00    -0.266 OA
HETATM   11  N   UNL     1      -2.582  16.320  -0.907  1.00  0.00    -0.365 N 
ATOM     12  HN2 UNL     1      -3.414  16.410  -1.491  1.00  0.00     0.159 HD
ATOM     13  HN1 UNL     1      -2.128  15.412  -0.811  1.00  0.00     0.159 HD
ENDBRANCH   8   9
BRANCH   7  14
HETATM   14  C   UNL     1       0.225  15.043   2.766  1.00  0.00     0.096 C 
BRANCH  14  15
HETATM   15  C   UNL     1       0.752  13.664   2.668  1.00  0.00     0.199 C 
HETATM   16  O   UNL     1       0.039  12.775   2.139  1.00  0.00    -0.644 OA
HETATM   17  O   UNL     1       1.899  13.442   3.132  1.00  0.00    -0.644 OA
ENDBRANCH  14  15
ENDBRANCH   7  14
TORSDOF 3
ENDMDL
MODEL 7
REMARK VINA RESULT:      -6.9      1.907      3.737
REMARK  3 active torsions:
REMARK  status: ('A' for Active; 'I' for Inactive)
REMARK    1  A    between atoms: C_4  and  C_14 
REMARK       I    between atoms: N_5  and  C_11 
REMARK    2  A    between atoms: C_11  and  C_16 
REMARK    3  A    between atoms: C_14  and  C_15 
ROOT
HETATM    1  C   UNL     1       0.170  14.898   1.639  1.00  0.00     0.246 C 
HETATM    2  N   UNL     1      -0.235  15.875   0.748  1.00  0.00    -0.319 N 
ATOM      3  HN  UNL     1      -0.928  15.653   0.033  1.00  0.00     0.169 HD
HETATM    4  C   UNL     1       1.390  15.113   2.339  1.00  0.00     0.086 C 
HETATM    5  C   UNL     1       1.176  17.439   1.839  1.00  0.00     0.047 C 
HETATM    6  O   UNL     1      -0.251  13.735   1.446  1.00  0.00    -0.268 OA
HETATM    7  C   UNL     1       1.969  16.379   2.287  1.00  0.00    -0.022 C 
HETATM    8  C   UNL     1       0.291  17.147   0.818  1.00  0.00     0.104 C 
ENDROOT
BRANCH   8   9
HETATM    9  C   UNL     1      -0.178  18.222  -0.090  1.00  0.00     0.266 C 
HETATM   10  O   UNL     1       0.501  18.533  -1.069  1.00  0.00    -0.266 OA
HETATM   11  N   UNL     1      -0.992  19.161   0.447  1.00  0.00    -0.365 N 
ATOM     12  HN2 UNL     1      -1.315  19.901  -0.178  1.00  0.00     0.159 HD
ATOM     13  HN1 UNL     1      -1.554  18.904   1.258  1.00  0.00     0.159 HD
ENDBRANCH   8   9
BRANCH   7  14
HETATM   14  C   UNL     1       3.321  16.742   2.711  1.00  0.00     0.096 C 
BRANCH  14  15
HETATM   15  C   UNL     1       4.440  15.786   2.860  1.00  0.00     0.199 C 
HETATM   16  O   UNL     1       4.769  15.076   1.877  1.00  0.00    -0.644 OA
HETATM   17  O   UNL     1       5.009  15.722   3.978  1.00  0.00    -0.644 OA
ENDBRANCH  14  15
ENDBRANCH   7  14
TORSDOF 3
ENDMDL
MODEL 8
REMARK VINA RESULT:      -6.9      1.958      4.595
REMARK  3 active torsions:
REMARK  status: ('A' for Active; 'I' for Inactive)
REMARK    1  A    between atoms: C_4  and  C_14 
REMARK       I    between atoms: N_5  and  C_11 
REMARK    2  A    between atoms: C_11  and  C_16 
REMARK    3  A    between atoms: C_14  and  C_15 
ROOT
HETATM    1  C   UNL     1       0.302  17.917   0.255  1.00  0.00     0.246 C 
HETATM    2  N   UNL     1      -0.492  16.789   0.344  1.00  0.00    -0.319 N 
ATOM      3  HN  UNL     1      -1.421  16.789  -0.077  1.00  0.00     0.169 HD
HETATM    4  C   UNL     1       1.389  18.028   1.168  1.00  0.00     0.086 C 
HETATM    5  C   UNL     1       1.249  15.666   1.499  1.00  0.00     0.047 C 
HETATM    6  O   UNL     1      -0.212  18.945  -0.242  1.00  0.00    -0.268 OA
HETATM    7  C   UNL     1       1.745  16.906   1.913  1.00  0.00    -0.022 C 
HETATM    8  C   UNL     1      -0.039  15.664   0.998  1.00  0.00     0.104 C 
ENDROOT
BRANCH   8   9
HETATM    9  C   UNL     1      -0.854  14.425   1.048  1.00  0.00     0.266 C 
HETATM   10  O   UNL     1      -0.406  13.423   1.605  1.00  0.00    -0.266 OA
HETATM   11  N   UNL     1      -1.764  14.254   0.061  1.00  0.00    -0.365 N 
ATOM     12  HN2 UNL     1      -2.324  13.402   0.096  1.00  0.00     0.159 HD
ATOM     13  HN1 UNL     1      -2.135  15.085  -0.400  1.00  0.00     0.159 HD
ENDBRANCH   8   9
BRANCH   7  14
HETATM   14  C   UNL     1       2.643  16.870   3.066  1.00  0.00     0.096 C 
BRANCH  14  15
HETATM   15  C   UNL     1       4.119  16.917   2.985  1.00  0.00     0.199 C 
HETATM   16  O   UNL     1       4.709  16.157   2.176  1.00  0.00    -0.644 OA
HETATM   17  O   UNL     1       4.722  17.716   3.744  1.00  0.00    -0.644 OA
ENDBRANCH  14  15
ENDBRANCH   7  14
TORSDOF 3
ENDMDL
MODEL 9
REMARK VINA RESULT:      -6.8      1.935      4.627
REMARK  3 active torsions:
REMARK  status: ('A' for Active; 'I' for Inactive)
REMARK    1  A    between atoms: C_4  and  C_14 
REMARK       I    between atoms: N_5  and  C_11 
REMARK    2  A    between atoms: C_11  and  C_16 
REMARK    3  A    between atoms: C_14  and  C_15 
ROOT
HETATM    1  C   UNL     1       0.056  14.183   1.595  1.00  0.00     0.246 C 
HETATM    2  N   UNL     1       1.069  14.744   2.350  1.00  0.00    -0.319 N 
ATOM      3  HN  UNL     1       1.466  14.222   3.131  1.00  0.00     0.169 HD
HETATM    4  C   UNL     1      -0.730  15.062   0.796  1.00  0.00     0.086 C 
HETATM    5  C   UNL     1       1.041  16.658   0.949  1.00  0.00     0.047 C 
HETATM    6  O   UNL     1      -0.418  13.093   1.987  1.00  0.00    -0.268 OA
HETATM    7  C   UNL     1      -0.287  16.370   0.620  1.00  0.00    -0.022 C 
HETATM    8  C   UNL     1       1.548  16.002   2.055  1.00  0.00     0.104 C 
ENDROOT
BRANCH   8   9
HETATM    9  C   UNL     1       2.676  16.592   2.817  1.00  0.00     0.266 C 
HETATM   10  O   UNL     1       2.662  17.790   3.098  1.00  0.00    -0.266 OA
HETATM   11  N   UNL     1       3.877  15.977   2.700  1.00  0.00    -0.365 N 
ATOM     12  HN2 UNL     1       4.653  16.383   3.224  1.00  0.00     0.159 HD
ATOM     13  HN1 UNL     1       3.888  14.984   2.467  1.00  0.00     0.159 HD
ENDBRANCH   8   9
BRANCH   7  14
HETATM   14  C   UNL     1      -1.051  17.486   0.063  1.00  0.00     0.096 C 
BRANCH  14  15
HETATM   15  C   UNL     1      -0.534  18.862  -0.098  1.00  0.00     0.199 C 
HETATM   16  O   UNL     1       0.086  19.160  -1.150  1.00  0.00    -0.644 OA
HETATM   17  O   UNL     1      -0.732  19.675   0.838  1.00  0.00    -0.644 OA
ENDBRANCH  14  15
ENDBRANCH   7  14
TORSDOF 3
ENDMDL
