MODEL 1
REMARK VINA RESULT:      -7.8      0.000      0.000
REMARK  5 active torsions:
REMARK  status: ('A' for Active; 'I' for Inactive)
REMARK    1  A    between atoms: C_2  and  N_6 
REMARK    2  A    between atoms: C_2  and  O_10 
REMARK    3  A    between atoms: C_2  and  C_12 
REMARK    4  A    between atoms: C_2  and  O_16 
REMARK    5  A    between atoms: C_13  and  C_18 
ROOT
HETATM    1  C   UNL     1      -2.654   1.658  10.238  1.00  0.00     0.047 C 
HETATM    2  C   UNL     1      -1.781   3.678   9.638  1.00  0.00     0.103 C 
HETATM    3  C   UNL     1      -0.487   3.246   9.948  1.00  0.00     0.049 C 
HETATM    4  C   UNL     1      -3.321   0.426  10.458  1.00  0.00     0.000 C 
HETATM    5  C   UNL     1      -0.345   2.046  10.676  1.00  0.00     0.025 C 
HETATM    6  C   UNL     1      -2.100  -0.094  11.173  1.00  0.00     0.084 C 
HETATM    7  N   UNL     1      -2.855   2.879   9.640  1.00  0.00    -0.364 N 
ATOM      8  HN  UNL     1      -3.749   3.154   9.232  1.00  0.00     0.165 HD
HETATM    9  C   UNL     1      -1.462   1.200  10.737  1.00  0.00    -0.026 C 
ENDROOT
BRANCH   3  10
HETATM   10  C   UNL     1       0.720   4.184   9.630  1.00  0.00     0.362 C 
BRANCH  10  11
HETATM   11  N   UNL     1       0.299   5.334   8.897  1.00  0.00    -0.017 N 
ATOM     12  HN3 UNL     1       0.550   6.208   9.358  1.00  0.00     0.281 HD
ATOM     13  HN2 UNL     1       0.835   5.471   8.040  1.00  0.00     0.281 HD
ATOM     14  HN1 UNL     1      -0.703   5.252   8.727  1.00  0.00     0.281 HD
ENDBRANCH  10  11
BRANCH  10  15
HETATM   15  O   UNL     1       1.642   3.500   8.865  1.00  0.00    -0.340 OA
ATOM     16  HO  UNL     1       2.393   4.066   8.730  1.00  0.00     0.215 HD
ENDBRANCH  10  15
BRANCH  10  17
HETATM   17  O   UNL     1       1.374   4.553  10.696  1.00  0.00    -0.340 OA
ATOM     18  HO  UNL     1       1.865   5.346  10.515  1.00  0.00     0.215 HD
ENDBRANCH  10  17
ENDBRANCH   3  10
BRANCH   4  19
HETATM   19  C   UNL     1      -4.725   0.289  10.115  1.00  0.00     0.040 C 
HETATM   20  N   UNL     1      -5.097   0.489   8.820  1.00  0.00    -0.365 N 
HETATM   21  C   UNL     1      -6.292  -0.010   8.445  1.00  0.00     0.088 C 
ATOM     22  HN  UNL     1      -4.499   0.994   8.164  1.00  0.00     0.165 HD
HETATM   23  C   UNL     1      -7.243  -0.412   9.355  1.00  0.00     0.017 C 
HETATM   24  C   UNL     1      -6.964  -0.258  10.712  1.00  0.00     0.004 C 
HETATM   25  C   UNL     1      -5.691   0.133  11.097  1.00  0.00     0.030 C 
ENDBRANCH   4  19
TORSDOF 5
ENDMDL
MODEL 2
REMARK VINA RESULT:      -7.6      1.230      1.683
REMARK  5 active torsions:
REMARK  status: ('A' for Active; 'I' for Inactive)
REMARK    1  A    between atoms: C_2  and  N_6 
REMARK    2  A    between atoms: C_2  and  O_10 
REMARK    3  A    between atoms: C_2  and  C_12 
REMARK    4  A    between atoms: C_2  and  O_16 
REMARK    5  A    between atoms: C_13  and  C_18 
ROOT
HETATM    1  C   UNL     1      -2.667   1.506   9.771  1.00  0.00     0.047 C 
HETATM    2  C   UNL     1      -2.053   3.587   9.068  1.00  0.00     0.103 C 
HETATM    3  C   UNL     1      -0.827   3.483   9.735  1.00  0.00     0.049 C 
HETATM    4  C   UNL     1      -3.133   0.191  10.028  1.00  0.00     0.000 C 
HETATM    5  C   UNL     1      -0.661   2.432  10.660  1.00  0.00     0.025 C 
HETATM    6  C   UNL     1      -2.065   0.032  11.079  1.00  0.00     0.084 C 
HETATM    7  N   UNL     1      -2.926   2.580   8.953  1.00  0.00    -0.364 N 
ATOM      8  HN  UNL     1      -3.718   2.607   8.310  1.00  0.00     0.165 HD
HETATM    9  C   UNL     1      -1.582   1.377  10.599  1.00  0.00    -0.026 C 
ENDROOT
BRANCH   3  10
HETATM   10  C   UNL     1       0.230   4.620   9.556  1.00  0.00     0.362 C 
BRANCH  10  11
HETATM   11  N   UNL     1       1.557   4.095   9.568  1.00  0.00    -0.017 N 
ATOM     12  HN3 UNL     1       1.601   3.144   9.932  1.00  0.00     0.281 HD
ATOM     13  HN2 UNL     1       1.912   3.902   8.632  1.00  0.00     0.281 HD
ATOM     14  HN1 UNL     1       2.149   4.743  10.088  1.00  0.00     0.281 HD
ENDBRANCH  10  11
BRANCH  10  15
HETATM   15  O   UNL     1       0.114   5.520  10.594  1.00  0.00    -0.340 OA
ATOM     16  HO  UNL     1      -0.007   6.386  10.223  1.00  0.00     0.215 HD
ENDBRANCH  10  15
BRANCH  10  17
HETATM   17  O   UNL     1       0.042   5.325   8.475  1.00  0.00    -0.340 OA
ATOM     18  HO  UNL     1      -0.741   5.855   8.568  1.00  0.00     0.215 HD
ENDBRANCH  10  17
ENDBRANCH   3  10
BRANCH   4  19
HETATM   19  C   UNL     1      -4.351  -0.285   9.398  1.00  0.00     0.040 C 
HETATM   20  N   UNL     1      -5.531   0.299   9.749  1.00  0.00    -0.365 N 
HETATM   21  C   UNL     1      -6.568   0.133   8.902  1.00  0.00     0.088 C 
ATOM     22  HN  UNL     1      -5.627   0.835  10.612  1.00  0.00     0.165 HD
HETATM   23  C   UNL     1      -6.568  -0.821   7.911  1.00  0.00     0.017 C 
HETATM   24  C   UNL     1      -5.464  -1.668   7.810  1.00  0.00     0.004 C 
HETATM   25  C   UNL     1      -4.348  -1.414   8.594  1.00  0.00     0.030 C 
ENDBRANCH   4  19
TORSDOF 5
ENDMDL
MODEL 3
REMARK VINA RESULT:      -7.6      2.480      3.987
REMARK  5 active torsions:
REMARK  status: ('A' for Active; 'I' for Inactive)
REMARK    1  A    between atoms: C_2  and  N_6 
REMARK    2  A    between atoms: C_2  and  O_10 
REMARK    3  A    between atoms: C_2  and  C_12 
REMARK    4  A    between atoms: C_2  and  O_16 
REMARK    5  A    between atoms: C_13  and  C_18 
ROOT
HETATM    1  C   UNL     1      -0.750   4.235   9.541  1.00  0.00     0.047 C 
HETATM    2  C   UNL     1       1.387   4.829  10.075  1.00  0.00     0.103 C 
HETATM    3  C   UNL     1       1.155   6.147   9.664  1.00  0.00     0.049 C 
HETATM    4  C   UNL     1      -2.072   3.750   9.372  1.00  0.00     0.000 C 
HETATM    5  C   UNL     1      -0.016   6.416   8.925  1.00  0.00     0.025 C 
HETATM    6  C   UNL     1      -2.405   4.978   8.563  1.00  0.00     0.084 C 
HETATM    7  N   UNL     1       0.432   3.895  10.155  1.00  0.00    -0.364 N 
ATOM      8  HN  UNL     1       0.570   3.004  10.632  1.00  0.00     0.165 HD
HETATM    9  C   UNL     1      -1.024   5.441   8.950  1.00  0.00    -0.026 C 
ENDROOT
BRANCH   3  10
HETATM   10  C   UNL     1       2.271   7.216   9.889  1.00  0.00     0.362 C 
BRANCH  10  11
HETATM   11  N   UNL     1       2.611   7.323  11.271  1.00  0.00    -0.017 N 
ATOM     12  HN3 UNL     1       2.424   6.465  11.790  1.00  0.00     0.281 HD
ATOM     13  HN2 UNL     1       3.618   7.363  11.426  1.00  0.00     0.281 HD
ATOM     14  HN1 UNL     1       2.121   8.130  11.656  1.00  0.00     0.281 HD
ENDBRANCH  10  11
BRANCH  10  15
HETATM   15  O   UNL     1       1.819   8.447   9.460  1.00  0.00    -0.340 OA
ATOM     16  HO  UNL     1       1.658   8.394   8.526  1.00  0.00     0.215 HD
ENDBRANCH  10  15
BRANCH  10  17
HETATM   17  O   UNL     1       3.345   6.988   9.185  1.00  0.00    -0.340 OA
ATOM     18  HO  UNL     1       3.226   7.311   8.300  1.00  0.00     0.215 HD
ENDBRANCH  10  17
ENDBRANCH   3  10
BRANCH   4  19
HETATM   19  C   UNL     1      -2.420   2.415   9.823  1.00  0.00     0.040 C 
HETATM   20  N   UNL     1      -3.038   1.576   8.944  1.00  0.00    -0.365 N 
HETATM   21  C   UNL     1      -3.000   0.260   9.231  1.00  0.00     0.088 C 
ATOM     22  HN  UNL     1      -3.507   1.928   8.109  1.00  0.00     0.165 HD
HETATM   23  C   UNL     1      -2.659  -0.217  10.476  1.00  0.00     0.017 C 
HETATM   24  C   UNL     1      -2.380   0.708  11.482  1.00  0.00     0.004 C 
HETATM   25  C   UNL     1      -2.293   2.053  11.154  1.00  0.00     0.030 C 
ENDBRANCH   4  19
TORSDOF 5
ENDMDL
MODEL 4
REMARK VINA RESULT:      -7.2      3.607      6.547
REMARK  5 active torsions:
REMARK  status: ('A' for Active; 'I' for Inactive)
REMARK    1  A    between atoms: C_2  and  N_6 
REMARK    2  A    between atoms: C_2  and  O_10 
REMARK    3  A    between atoms: C_2  and  C_12 
REMARK    4  A    between atoms: C_2  and  O_16 
REMARK    5  A    between atoms: C_13  and  C_18 
ROOT
HETATM    1  C   UNL     1      -2.861   1.146   9.678  1.00  0.00     0.047 C 
HETATM    2  C   UNL     1      -3.995  -0.040   8.093  1.00  0.00     0.103 C 
HETATM    3  C   UNL     1      -4.690  -0.751   9.078  1.00  0.00     0.049 C 
HETATM    4  C   UNL     1      -2.174   2.039  10.539  1.00  0.00     0.000 C 
HETATM    5  C   UNL     1      -4.233  -0.659  10.409  1.00  0.00     0.025 C 
HETATM    6  C   UNL     1      -2.532   1.162  11.712  1.00  0.00     0.084 C 
HETATM    7  N   UNL     1      -3.186   0.994   8.350  1.00  0.00    -0.364 N 
ATOM      8  HN  UNL     1      -2.840   1.619   7.622  1.00  0.00     0.165 HD
HETATM    9  C   UNL     1      -3.350   0.389  10.710  1.00  0.00    -0.026 C 
ENDROOT
BRANCH   3  10
HETATM   10  C   UNL     1      -5.820  -1.738   8.644  1.00  0.00     0.362 C 
BRANCH  10  11
HETATM   11  N   UNL     1      -6.958  -1.032   8.151  1.00  0.00    -0.017 N 
ATOM     12  HN3 UNL     1      -7.670  -0.886   8.866  1.00  0.00     0.281 HD
ATOM     13  HN2 UNL     1      -6.758  -0.052   7.954  1.00  0.00     0.281 HD
ATOM     14  HN1 UNL     1      -7.314  -1.533   7.337  1.00  0.00     0.281 HD
ENDBRANCH  10  11
BRANCH  10  15
HETATM   15  O   UNL     1      -6.216  -2.487   9.732  1.00  0.00    -0.340 OA
ATOM     16  HO  UNL     1      -5.984  -2.011  10.520  1.00  0.00     0.215 HD
ENDBRANCH  10  15
BRANCH  10  17
HETATM   17  O   UNL     1      -5.423  -2.610   7.760  1.00  0.00    -0.340 OA
ATOM     18  HO  UNL     1      -6.155  -3.150   7.488  1.00  0.00     0.215 HD
ENDBRANCH  10  17
ENDBRANCH   3  10
BRANCH   4  19
HETATM   19  C   UNL     1      -1.397   3.132   9.983  1.00  0.00     0.040 C 
HETATM   20  N   UNL     1      -2.037   4.048   9.202  1.00  0.00    -0.365 N 
HETATM   21  C   UNL     1      -1.419   5.233   9.024  1.00  0.00     0.088 C 
ATOM     22  HN  UNL     1      -2.941   3.847   8.774  1.00  0.00     0.165 HD
HETATM   23  C   UNL     1      -0.088   5.424   9.319  1.00  0.00     0.017 C 
HETATM   24  C   UNL     1       0.648   4.335   9.784  1.00  0.00     0.004 C 
HETATM   25  C   UNL     1      -0.016   3.156  10.089  1.00  0.00     0.030 C 
ENDBRANCH   4  19
TORSDOF 5
ENDMDL
MODEL 5
REMARK VINA RESULT:      -7.1      3.746      6.583
REMARK  5 active torsions:
REMARK  status: ('A' for Active; 'I' for Inactive)
REMARK    1  A    between atoms: C_2  and  N_6 
REMARK    2  A    between atoms: C_2  and  O_10 
REMARK    3  A    between atoms: C_2  and  C_12 
REMARK    4  A    between atoms: C_2  and  O_16 
REMARK    5  A    between atoms: C_13  and  C_18 
ROOT
HETATM    1  C   UNL     1      -3.016   0.749   9.765  1.00  0.00     0.047 C 
HETATM    2  C   UNL     1      -4.674   0.075   8.351  1.00  0.00     0.103 C 
HETATM    3  C   UNL     1      -5.039  -0.957   9.222  1.00  0.00     0.049 C 
HETATM    4  C   UNL     1      -2.034   1.353  10.591  1.00  0.00     0.000 C 
HETATM    5  C   UNL     1      -4.162  -1.275  10.279  1.00  0.00     0.025 C 
HETATM    6  C   UNL     1      -2.028   0.123  11.463  1.00  0.00     0.084 C 
HETATM    7  N   UNL     1      -3.771   1.017   8.648  1.00  0.00    -0.364 N 
ATOM      8  HN  UNL     1      -3.653   1.864   8.093  1.00  0.00     0.165 HD
HETATM    9  C   UNL     1      -3.174  -0.331  10.595  1.00  0.00    -0.026 C 
ENDROOT
BRANCH   3  10
HETATM   10  C   UNL     1      -6.301  -1.816   8.890  1.00  0.00     0.362 C 
BRANCH  10  11
HETATM   11  N   UNL     1      -6.018  -2.776   7.874  1.00  0.00    -0.017 N 
ATOM     12  HN3 UNL     1      -5.097  -2.646   7.455  1.00  0.00     0.281 HD
ATOM     13  HN2 UNL     1      -5.867  -3.713   8.249  1.00  0.00     0.281 HD
ATOM     14  HN1 UNL     1      -6.770  -2.744   7.187  1.00  0.00     0.281 HD
ENDBRANCH  10  11
BRANCH  10  15
HETATM   15  O   UNL     1      -7.308  -0.991   8.433  1.00  0.00    -0.340 OA
ATOM     16  HO  UNL     1      -8.083  -1.151   8.957  1.00  0.00     0.215 HD
ENDBRANCH  10  15
BRANCH  10  17
HETATM   17  O   UNL     1      -6.803  -2.412   9.936  1.00  0.00    -0.340 OA
ATOM     18  HO  UNL     1      -6.108  -2.637  10.543  1.00  0.00     0.215 HD
ENDBRANCH  10  17
ENDBRANCH   3  10
BRANCH   4  19
HETATM   19  C   UNL     1      -1.428   2.612  10.198  1.00  0.00     0.040 C 
HETATM   20  N   UNL     1      -0.074   2.737  10.295  1.00  0.00    -0.365 N 
HETATM   21  C   UNL     1       0.498   3.727   9.581  1.00  0.00     0.088 C 
ATOM     22  HN  UNL     1       0.480   2.110  10.880  1.00  0.00     0.165 HD
HETATM   23  C   UNL     1      -0.228   4.764   9.041  1.00  0.00     0.017 C 
HETATM   24  C   UNL     1      -1.602   4.801   9.278  1.00  0.00     0.004 C 
HETATM   25  C   UNL     1      -2.206   3.719   9.900  1.00  0.00     0.030 C 
ENDBRANCH   4  19
TORSDOF 5
ENDMDL
MODEL 6
REMARK VINA RESULT:      -7.0      3.826      6.450
REMARK  5 active torsions:
REMARK  status: ('A' for Active; 'I' for Inactive)
REMARK    1  A    between atoms: C_2  and  N_6 
REMARK    2  A    between atoms: C_2  and  O_10 
REMARK    3  A    between atoms: C_2  and  C_12 
REMARK    4  A    between atoms: C_2  and  O_16 
REMARK    5  A    between atoms: C_13  and  C_18 
ROOT
HETATM    1  C   UNL     1      -3.529   1.023   9.648  1.00  0.00     0.047 C 
HETATM    2  C   UNL     1      -5.383  -0.209   9.152  1.00  0.00     0.103 C 
HETATM    3  C   UNL     1      -5.178  -1.024  10.271  1.00  0.00     0.049 C 
HETATM    4  C   UNL     1      -2.480   1.946   9.893  1.00  0.00     0.000 C 
HETATM    5  C   UNL     1      -3.937  -0.939  10.936  1.00  0.00     0.025 C 
HETATM    6  C   UNL     1      -1.894   0.992  10.902  1.00  0.00     0.084 C 
HETATM    7  N   UNL     1      -4.668   0.891   8.890  1.00  0.00    -0.364 N 
ATOM      8  HN  UNL     1      -4.946   1.576   8.187  1.00  0.00     0.165 HD
HETATM    9  C   UNL     1      -3.139   0.180  10.656  1.00  0.00    -0.026 C 
ENDROOT
BRANCH   3  10
HETATM   10  C   UNL     1      -6.251  -2.102  10.628  1.00  0.00     0.362 C 
BRANCH  10  11
HETATM   11  N   UNL     1      -6.968  -2.518   9.467  1.00  0.00    -0.017 N 
ATOM     12  HN3 UNL     1      -6.583  -3.365   9.048  1.00  0.00     0.281 HD
ATOM     13  HN2 UNL     1      -7.895  -2.882   9.687  1.00  0.00     0.281 HD
ATOM     14  HN1 UNL     1      -6.998  -1.735   8.814  1.00  0.00     0.281 HD
ENDBRANCH  10  11
BRANCH  10  15
HETATM   15  O   UNL     1      -7.154  -1.570  11.524  1.00  0.00    -0.340 OA
ATOM     16  HO  UNL     1      -8.030  -1.724  11.189  1.00  0.00     0.215 HD
ENDBRANCH  10  15
BRANCH  10  17
HETATM   17  O   UNL     1      -5.747  -3.141  11.234  1.00  0.00    -0.340 OA
ATOM     18  HO  UNL     1      -4.848  -3.272  10.957  1.00  0.00     0.215 HD
ENDBRANCH  10  17
ENDBRANCH   3  10
BRANCH   4  19
HETATM   19  C   UNL     1      -2.349   3.133   9.068  1.00  0.00     0.040 C 
HETATM   20  N   UNL     1      -2.761   3.067   7.770  1.00  0.00    -0.365 N 
HETATM   21  C   UNL     1      -2.998   4.239   7.147  1.00  0.00     0.088 C 
ATOM     22  HN  UNL     1      -2.885   2.173   7.293  1.00  0.00     0.165 HD
HETATM   23  C   UNL     1      -2.553   5.443   7.642  1.00  0.00     0.017 C 
HETATM   24  C   UNL     1      -1.798   5.435   8.815  1.00  0.00     0.004 C 
HETATM   25  C   UNL     1      -1.666   4.249   9.521  1.00  0.00     0.030 C 
ENDBRANCH   4  19
TORSDOF 5
ENDMDL
MODEL 7
REMARK VINA RESULT:      -6.6      4.373      6.210
REMARK  5 active torsions:
REMARK  status: ('A' for Active; 'I' for Inactive)
REMARK    1  A    between atoms: C_2  and  N_6 
REMARK    2  A    between atoms: C_2  and  O_10 
REMARK    3  A    between atoms: C_2  and  C_12 
REMARK    4  A    between atoms: C_2  and  O_16 
REMARK    5  A    between atoms: C_13  and  C_18 
ROOT
HETATM    1  C   UNL     1      -3.084   4.004   7.646  1.00  0.00     0.047 C 
HETATM    2  C   UNL     1      -4.518   3.242   6.044  1.00  0.00     0.103 C 
HETATM    3  C   UNL     1      -4.277   4.368   5.249  1.00  0.00     0.049 C 
HETATM    4  C   UNL     1      -2.139   4.287   8.665  1.00  0.00     0.000 C 
HETATM    5  C   UNL     1      -3.600   5.460   5.833  1.00  0.00     0.025 C 
HETATM    6  C   UNL     1      -2.026   5.699   8.150  1.00  0.00     0.084 C 
HETATM    7  N   UNL     1      -3.846   2.964   7.167  1.00  0.00    -0.364 N 
ATOM      8  HN  UNL     1      -3.895   2.057   7.630  1.00  0.00     0.165 HD
HETATM    9  C   UNL     1      -2.918   5.219   7.034  1.00  0.00    -0.026 C 
ENDROOT
BRANCH   3  10
HETATM   10  C   UNL     1      -4.910   4.437   3.823  1.00  0.00     0.362 C 
BRANCH  10  11
HETATM   11  N   UNL     1      -5.744   5.586   3.685  1.00  0.00    -0.017 N 
ATOM     12  HN3 UNL     1      -5.319   6.314   3.111  1.00  0.00     0.281 HD
ATOM     13  HN2 UNL     1      -6.562   5.410   3.101  1.00  0.00     0.281 HD
ATOM     14  HN1 UNL     1      -5.989   5.915   4.618  1.00  0.00     0.281 HD
ENDBRANCH  10  11
BRANCH  10  15
HETATM   15  O   UNL     1      -5.685   3.315   3.612  1.00  0.00    -0.340 OA
ATOM     16  HO  UNL     1      -5.660   2.785   4.400  1.00  0.00     0.215 HD
ENDBRANCH  10  15
BRANCH  10  17
HETATM   17  O   UNL     1      -4.021   4.417   2.869  1.00  0.00    -0.340 OA
ATOM     18  HO  UNL     1      -3.234   4.867   3.152  1.00  0.00     0.215 HD
ENDBRANCH  10  17
ENDBRANCH   3  10
BRANCH   4  19
HETATM   19  C   UNL     1      -1.873   3.307   9.702  1.00  0.00     0.040 C 
HETATM   20  N   UNL     1      -2.904   2.915  10.502  1.00  0.00    -0.365 N 
HETATM   21  C   UNL     1      -2.747   1.757  11.174  1.00  0.00     0.088 C 
ATOM     22  HN  UNL     1      -3.755   3.472  10.588  1.00  0.00     0.165 HD
HETATM   23  C   UNL     1      -1.521   1.151  11.327  1.00  0.00     0.017 C 
HETATM   24  C   UNL     1      -0.400   1.787  10.793  1.00  0.00     0.004 C 
HETATM   25  C   UNL     1      -0.579   2.906   9.994  1.00  0.00     0.030 C 
ENDBRANCH   4  19
TORSDOF 5
ENDMDL
MODEL 8
REMARK VINA RESULT:      -6.6      4.205      7.000
REMARK  5 active torsions:
REMARK  status: ('A' for Active; 'I' for Inactive)
REMARK    1  A    between atoms: C_2  and  N_6 
REMARK    2  A    between atoms: C_2  and  O_10 
REMARK    3  A    between atoms: C_2  and  C_12 
REMARK    4  A    between atoms: C_2  and  O_16 
REMARK    5  A    between atoms: C_13  and  C_18 
ROOT
HETATM    1  C   UNL     1      -4.307  -0.027   9.579  1.00  0.00     0.047 C 
HETATM    2  C   UNL     1      -6.286  -0.039   8.447  1.00  0.00     0.103 C 
HETATM    3  C   UNL     1      -6.720  -1.165   9.155  1.00  0.00     0.049 C 
HETATM    4  C   UNL     1      -3.090   0.178  10.279  1.00  0.00     0.000 C 
HETATM    5  C   UNL     1      -5.770  -1.876   9.917  1.00  0.00     0.025 C 
HETATM    6  C   UNL     1      -3.212  -1.203  10.870  1.00  0.00     0.084 C 
HETATM    7  N   UNL     1      -5.160   0.629   8.724  1.00  0.00    -0.364 N 
ATOM      8  HN  UNL     1      -4.952   1.548   8.333  1.00  0.00     0.165 HD
HETATM    9  C   UNL     1      -4.559  -1.226  10.195  1.00  0.00    -0.026 C 
ENDROOT
BRANCH   3  10
HETATM   10  C   UNL     1      -8.179  -1.680   8.937  1.00  0.00     0.362 C 
BRANCH  10  11
HETATM   11  N   UNL     1      -8.960  -0.725   8.221  1.00  0.00    -0.017 N 
ATOM     12  HN3 UNL     1      -9.877  -0.571   8.641  1.00  0.00     0.281 HD
ATOM     13  HN2 UNL     1      -8.603   0.226   8.316  1.00  0.00     0.281 HD
ATOM     14  HN1 UNL     1      -9.019  -1.028   7.249  1.00  0.00     0.281 HD
ENDBRANCH  10  11
BRANCH  10  15
HETATM   15  O   UNL     1      -8.777  -1.892  10.162  1.00  0.00    -0.340 OA
ATOM     16  HO  UNL     1      -9.718  -1.847  10.044  1.00  0.00     0.215 HD
ENDBRANCH  10  15
BRANCH  10  17
HETATM   17  O   UNL     1      -8.227  -2.834   8.334  1.00  0.00    -0.340 OA
ATOM     18  HO  UNL     1      -9.115  -3.011   8.046  1.00  0.00     0.215 HD
ENDBRANCH  10  17
ENDBRANCH   3  10
BRANCH   4  19
HETATM   19  C   UNL     1      -2.295   1.365  10.021  1.00  0.00     0.040 C 
HETATM   20  N   UNL     1      -2.788   2.299   9.160  1.00  0.00    -0.365 N 
HETATM   21  C   UNL     1      -2.251   3.534   9.229  1.00  0.00     0.088 C 
ATOM     22  HN  UNL     1      -3.528   2.075   8.494  1.00  0.00     0.165 HD
HETATM   23  C   UNL     1      -1.065   3.790   9.879  1.00  0.00     0.017 C 
HETATM   24  C   UNL     1      -0.383   2.717  10.452  1.00  0.00     0.004 C 
HETATM   25  C   UNL     1      -0.997   1.474  10.492  1.00  0.00     0.030 C 
ENDBRANCH   4  19
TORSDOF 5
ENDMDL
MODEL 9
REMARK VINA RESULT:      -6.4      3.743      6.596
REMARK  5 active torsions:
REMARK  status: ('A' for Active; 'I' for Inactive)
REMARK    1  A    between atoms: C_2  and  N_6 
REMARK    2  A    between atoms: C_2  and  O_10 
REMARK    3  A    between atoms: C_2  and  C_12 
REMARK    4  A    between atoms: C_2  and  O_16 
REMARK    5  A    between atoms: C_13  and  C_18 
ROOT
HETATM    1  C   UNL     1      -3.190   1.168   8.857  1.00  0.00     0.047 C 
HETATM    2  C   UNL     1      -4.037   0.569   6.825  1.00  0.00     0.103 C 
HETATM    3  C   UNL     1      -4.961  -0.291   7.430  1.00  0.00     0.049 C 
HETATM    4  C   UNL     1      -2.645   1.722  10.043  1.00  0.00     0.000 C 
HETATM    5  C   UNL     1      -4.785  -0.600   8.794  1.00  0.00     0.025 C 
HETATM    6  C   UNL     1      -3.288   0.616  10.841  1.00  0.00     0.084 C 
HETATM    7  N   UNL     1      -3.241   1.404   7.504  1.00  0.00    -0.364 N 
ATOM      8  HN  UNL     1      -2.716   2.155   7.054  1.00  0.00     0.165 HD
HETATM    9  C   UNL     1      -3.925   0.227   9.531  1.00  0.00    -0.026 C 
ENDROOT
BRANCH   3  10
HETATM   10  C   UNL     1      -6.032  -0.997   6.539  1.00  0.00     0.362 C 
BRANCH  10  11
HETATM   11  N   UNL     1      -5.766  -2.395   6.426  1.00  0.00    -0.017 N 
ATOM     12  HN3 UNL     1      -6.151  -2.932   7.203  1.00  0.00     0.281 HD
ATOM     13  HN2 UNL     1      -6.298  -2.836   5.676  1.00  0.00     0.281 HD
ATOM     14  HN1 UNL     1      -4.759  -2.519   6.322  1.00  0.00     0.281 HD
ENDBRANCH  10  11
BRANCH  10  15
HETATM   15  O   UNL     1      -6.006  -0.451   5.272  1.00  0.00    -0.340 OA
ATOM     16  HO  UNL     1      -6.881  -0.149   5.062  1.00  0.00     0.215 HD
ENDBRANCH  10  15
BRANCH  10  17
HETATM   17  O   UNL     1      -7.251  -0.810   6.961  1.00  0.00    -0.340 OA
ATOM     18  HO  UNL     1      -7.252  -0.186   7.677  1.00  0.00     0.215 HD
ENDBRANCH  10  17
ENDBRANCH   3  10
BRANCH   4  19
HETATM   19  C   UNL     1      -1.709   2.828   9.965  1.00  0.00     0.040 C 
HETATM   20  N   UNL     1      -0.427   2.621  10.379  1.00  0.00    -0.365 N 
HETATM   21  C   UNL     1       0.501   3.500   9.948  1.00  0.00     0.088 C 
ATOM     22  HN  UNL     1      -0.181   1.839  10.986  1.00  0.00     0.165 HD
HETATM   23  C   UNL     1       0.169   4.717   9.399  1.00  0.00     0.017 C 
HETATM   24  C   UNL     1      -1.181   5.060   9.324  1.00  0.00     0.004 C 
HETATM   25  C   UNL     1      -2.136   4.108   9.647  1.00  0.00     0.030 C 
ENDBRANCH   4  19
TORSDOF 5
ENDMDL
