REMARK  1 active torsions:
REMARK  status: ('A' for Active; 'I' for Inactive)
REMARK    1  A    between atoms: C_1  and  C_18 
ROOT
HETATM    1  C   UNL     1      24.091  86.482  61.302  1.00  0.00    -0.008 C 
HETATM    2  C   UNL     1      21.321  87.038  64.979  1.00  0.00     0.203 C 
HETATM    3  N   UNL     1      22.719  84.613  61.931  1.00  0.00    -0.363 N 
ATOM      4  HN  UNL     1      22.318  83.704  61.700  1.00  0.00     0.165 HD
HETATM    5  C   UNL     1      22.279  85.328  62.997  1.00  0.00     0.065 C 
HETATM    6  C   UNL     1      20.618  85.749  64.713  1.00  0.00     0.002 C 
HETATM    7  C   UNL     1      23.698  85.147  61.197  1.00  0.00     0.100 C 
HETATM    8  C   UNL     1      22.964  86.494  63.406  1.00  0.00     0.096 C 
HETATM    9  C   UNL     1      21.014  85.047  63.583  1.00  0.00     0.030 C 
HETATM   10  C   UNL     1      23.860  87.120  62.533  1.00  0.00     0.052 C 
HETATM   11  O   UNL     1      22.723  86.931  64.684  1.00  0.00    -0.345 OA
ENDROOT
BRANCH   1  12
HETATM   12  C   UNL     1      24.798  87.067  60.155  1.00  0.00    -0.024 C 
HETATM   13  C   UNL     1      25.803  86.301  59.538  1.00  0.00     0.013 C 
HETATM   14  C   UNL     1      26.026  86.416  58.175  1.00  0.00     0.013 C 
HETATM   15  C   UNL     1      25.369  87.454  57.487  1.00  0.00    -0.026 C 
HETATM   16  C   UNL     1      24.818  88.534  58.243  1.00  0.00    -0.025 C 
HETATM   17  C   UNL     1      25.073  87.286  56.127  1.00  0.00     0.012 C 
HETATM   18  C   UNL     1      24.779  89.846  57.743  1.00  0.00     0.012 C 
HETATM   19  C   UNL     1      24.388  88.258  59.546  1.00  0.00     0.024 C 
HETATM   20  C   UNL     1      24.957  90.282  56.451  1.00  0.00     0.001 C 
HETATM   21  C   UNL     1      24.860  89.605  55.271  1.00  0.00     0.000 C 
HETATM   22  C   UNL     1      25.007  88.240  55.139  1.00  0.00     0.001 C 
ENDBRANCH   1  12
TORSDOF 1
