REMARK  0 active torsions:
REMARK  status: ('A' for Active; 'I' for Inactive)
ROOT
HETATM    1  C   UNL     1      24.980  89.829  58.141  1.00  0.00     0.006 C 
HETATM    2  C   UNL     1      23.266  86.419  63.824  1.00  0.00     0.156 C 
HETATM    3  C   UNL     1      22.906  86.466  61.450  1.00  0.00    -0.041 C 
HETATM    4  C   UNL     1      25.612  87.961  56.567  1.00  0.00    -0.010 C 
HETATM    5  C   UNL     1      24.659  87.919  62.394  1.00  0.00     0.011 C 
HETATM    6  N   UNL     1      20.072  85.062  63.114  1.00  0.00    -0.380 N 
ATOM      7  HN1 UNL     1      19.501  84.840  62.298  1.00  0.00     0.158 HD
ATOM      8  HN2 UNL     1      19.658  85.000  64.044  1.00  0.00     0.158 HD
HETATM    9  C   UNL     1      25.385  87.416  55.150  1.00  0.00     0.005 C 
HETATM   10  C   UNL     1      23.557  86.949  62.583  1.00  0.00    -0.008 C 
HETATM   11  C   UNL     1      25.143  88.179  61.223  1.00  0.00    -0.016 C 
HETATM   12  C   UNL     1      25.854  88.441  54.112  1.00  0.00     0.000 C 
HETATM   13  C   UNL     1      23.200  87.040  60.066  1.00  0.00     0.053 C 
HETATM   14  C   UNL     1      25.116  86.900  57.567  1.00  0.00     0.006 C 
HETATM   15  C   UNL     1      24.498  87.882  59.888  1.00  0.00    -0.019 C 
HETATM   16  C   UNL     1      25.540  87.132  59.023  1.00  0.00     0.014 C 
HETATM   17  O   UNL     1      22.134  85.685  64.004  1.00  0.00    -0.305 OA
HETATM   18  C   UNL     1      24.126  89.225  59.249  1.00  0.00     0.014 C 
HETATM   19  C   UNL     1      21.937  85.473  61.626  1.00  0.00     0.064 C 
HETATM   20  C   UNL     1      24.742  89.245  56.732  1.00  0.00    -0.010 C 
HETATM   21  C   UNL     1      21.367  85.387  62.908  1.00  0.00     0.141 C 
HETATM   22  C   UNL     1      25.302  90.282  55.728  1.00  0.00     0.005 C 
HETATM   23  C   UNL     1      25.079  89.744  54.309  1.00  0.00     0.000 C 
ENDROOT
TORSDOF 0
