MODEL 1
REMARK VINA RESULT:      -9.0      0.000      0.000
REMARK  6 active torsions:
REMARK  status: ('A' for Active; 'I' for Inactive)
REMARK    1  A    between atoms: C_4  and  O_7 
REMARK    2  A    between atoms: C_9  and  N_19 
REMARK    3  A    between atoms: C_10  and  O_12 
REMARK    4  A    between atoms: O_14  and  C_22 
REMARK    5  A    between atoms: C_17  and  N_19 
REMARK    6  A    between atoms: C_21  and  C_22 
ROOT
HETATM    1  C   UNL     1       2.199   2.314 -12.056  1.00  0.00     0.029 C 
HETATM    2  C   UNL     1       2.997  -0.555 -11.525  1.00  0.00     0.076 C 
HETATM    3  C   UNL     1       1.445   1.982 -10.931  1.00  0.00     0.003 C 
HETATM    4  C   UNL     1       3.377   1.678 -12.518  1.00  0.00     0.035 C 
HETATM    5  C   UNL     1       1.842  -0.428 -10.678  1.00  0.00     0.003 C 
HETATM    6  C   UNL     1       3.876   0.511 -11.869  1.00  0.00     0.066 C 
HETATM    7  C   UNL     1       1.448   0.806 -10.183  1.00  0.00     0.012 C 
ENDROOT
BRANCH   4   8
HETATM    8  N   UNL     1       3.983   2.134 -13.723  1.00  0.00    -0.356 N 
ATOM      9  HN  UNL     1       4.307   1.383 -14.333  1.00  0.00     0.166 HD
BRANCH   8  10
HETATM   10  C   UNL     1       4.217   3.412 -14.224  1.00  0.00     0.032 C 
HETATM   11  C   UNL     1       4.541   3.498 -15.650  1.00  0.00     0.029 C 
HETATM   12  C   UNL     1       3.984   4.342 -16.595  1.00  0.00     0.005 C 
HETATM   13  C   UNL     1       3.763   5.726 -16.621  1.00  0.00     0.036 C 
HETATM   14  C   UNL     1       2.963   6.540 -15.724  1.00  0.00     0.065 C 
HETATM   15  C   UNL     1       2.972   6.507 -14.254  1.00  0.00     0.036 C 
HETATM   16  C   UNL     1       3.982   5.884 -13.509  1.00  0.00     0.005 C 
HETATM   17  C   UNL     1       4.256   4.539 -13.309  1.00  0.00     0.029 C 
BRANCH  14  18
HETATM   18  O   UNL     1       2.695   7.759 -16.210  1.00  0.00    -0.361 OA
ATOM     19  HO  UNL     1       1.995   8.205 -15.746  1.00  0.00     0.217 HD
ENDBRANCH  14  18
ENDBRANCH   8  10
ENDBRANCH   4   8
BRANCH   2  20
HETATM   20  O   UNL     1       3.237  -1.742 -12.135  1.00  0.00    -0.360 OA
ATOM     21  HO  UNL     1       3.109  -2.545 -11.644  1.00  0.00     0.217 HD
ENDBRANCH   2  20
BRANCH   5  22
HETATM   22  C   UNL     1       1.056  -1.642 -10.198  1.00  0.00     0.149 C 
HETATM   23  C   UNL     1       0.047  -1.326  -9.111  1.00  0.00     0.044 C 
BRANCH  22  24
HETATM   24  O   UNL     1       1.942  -2.619  -9.680  1.00  0.00    -0.391 OA
ATOM     25  HO  UNL     1       1.633  -3.467  -9.976  1.00  0.00     0.210 HD
ENDBRANCH  22  24
ENDBRANCH   5  22
TORSDOF 6
ENDMDL
MODEL 2
REMARK VINA RESULT:      -8.9      1.301      1.939
REMARK  6 active torsions:
REMARK  status: ('A' for Active; 'I' for Inactive)
REMARK    1  A    between atoms: C_4  and  O_7 
REMARK    2  A    between atoms: C_9  and  N_19 
REMARK    3  A    between atoms: C_10  and  O_12 
REMARK    4  A    between atoms: O_14  and  C_22 
REMARK    5  A    between atoms: C_17  and  N_19 
REMARK    6  A    between atoms: C_21  and  C_22 
ROOT
HETATM    1  C   UNL     1       1.372   1.751 -11.023  1.00  0.00     0.029 C 
HETATM    2  C   UNL     1       2.598  -0.988 -11.402  1.00  0.00     0.076 C 
HETATM    3  C   UNL     1       0.722   0.981 -10.059  1.00  0.00     0.003 C 
HETATM    4  C   UNL     1       2.610   1.473 -11.653  1.00  0.00     0.035 C 
HETATM    5  C   UNL     1       1.473  -1.302 -10.562  1.00  0.00     0.003 C 
HETATM    6  C   UNL     1       3.298   0.252 -11.394  1.00  0.00     0.066 C 
HETATM    7  C   UNL     1       0.926  -0.353  -9.712  1.00  0.00     0.012 C 
ENDROOT
BRANCH   4   8
HETATM    8  N   UNL     1       3.092   2.361 -12.655  1.00  0.00    -0.356 N 
ATOM      9  HN  UNL     1       3.894   2.004 -13.174  1.00  0.00     0.166 HD
BRANCH   8  10
HETATM   10  C   UNL     1       2.674   3.627 -13.059  1.00  0.00     0.032 C 
HETATM   11  C   UNL     1       3.425   4.760 -12.512  1.00  0.00     0.029 C 
HETATM   12  C   UNL     1       3.952   5.838 -13.203  1.00  0.00     0.005 C 
HETATM   13  C   UNL     1       3.406   6.726 -14.140  1.00  0.00     0.036 C 
HETATM   14  C   UNL     1       2.829   6.439 -15.441  1.00  0.00     0.065 C 
HETATM   15  C   UNL     1       1.842   5.397 -15.762  1.00  0.00     0.036 C 
HETATM   16  C   UNL     1       1.096   4.725 -14.785  1.00  0.00     0.005 C 
HETATM   17  C   UNL     1       1.476   3.756 -13.868  1.00  0.00     0.029 C 
BRANCH  14  18
HETATM   18  O   UNL     1       2.702   7.524 -16.216  1.00  0.00    -0.361 OA
ATOM     19  HO  UNL     1       3.413   8.146 -16.113  1.00  0.00     0.217 HD
ENDBRANCH  14  18
ENDBRANCH   8  10
ENDBRANCH   4   8
BRANCH   2  20
HETATM   20  O   UNL     1       2.981  -1.881 -12.348  1.00  0.00    -0.360 OA
ATOM     21  HO  UNL     1       2.379  -2.570 -12.601  1.00  0.00     0.217 HD
ENDBRANCH   2  20
BRANCH   5  22
HETATM   22  C   UNL     1       0.892  -2.709 -10.486  1.00  0.00     0.149 C 
HETATM   23  C   UNL     1      -0.444  -2.779  -9.771  1.00  0.00     0.044 C 
BRANCH  22  24
HETATM   24  O   UNL     1       1.786  -3.565  -9.796  1.00  0.00    -0.391 OA
ATOM     25  HO  UNL     1       1.472  -3.639  -8.902  1.00  0.00     0.210 HD
ENDBRANCH  22  24
ENDBRANCH   5  22
TORSDOF 6
ENDMDL
MODEL 3
REMARK VINA RESULT:      -8.8      1.908      2.600
REMARK  6 active torsions:
REMARK  status: ('A' for Active; 'I' for Inactive)
REMARK    1  A    between atoms: C_4  and  O_7 
REMARK    2  A    between atoms: C_9  and  N_19 
REMARK    3  A    between atoms: C_10  and  O_12 
REMARK    4  A    between atoms: O_14  and  C_22 
REMARK    5  A    between atoms: C_17  and  N_19 
REMARK    6  A    between atoms: C_21  and  C_22 
ROOT
HETATM    1  C   UNL     1       3.499   1.417 -11.826  1.00  0.00     0.029 C 
HETATM    2  C   UNL     1       0.880   1.196 -10.331  1.00  0.00     0.076 C 
HETATM    3  C   UNL     1       3.374   0.044 -11.615  1.00  0.00     0.003 C 
HETATM    4  C   UNL     1       2.467   2.386 -11.807  1.00  0.00     0.035 C 
HETATM    5  C   UNL     1       1.422  -0.122 -10.136  1.00  0.00     0.003 C 
HETATM    6  C   UNL     1       1.133   2.021 -11.463  1.00  0.00     0.066 C 
HETATM    7  C   UNL     1       2.325  -0.667 -11.036  1.00  0.00     0.012 C 
ENDROOT
BRANCH   4   8
HETATM    8  N   UNL     1       2.801   3.757 -11.999  1.00  0.00    -0.356 N 
ATOM      9  HN  UNL     1       3.164   4.216 -11.163  1.00  0.00     0.166 HD
BRANCH   8  10
HETATM   10  C   UNL     1       2.724   4.589 -13.113  1.00  0.00     0.032 C 
HETATM   11  C   UNL     1       3.981   5.198 -13.553  1.00  0.00     0.029 C 
HETATM   12  C   UNL     1       4.498   5.237 -14.836  1.00  0.00     0.005 C 
HETATM   13  C   UNL     1       3.952   5.613 -16.071  1.00  0.00     0.036 C 
HETATM   14  C   UNL     1       2.809   5.054 -16.771  1.00  0.00     0.065 C 
HETATM   15  C   UNL     1       1.484   4.754 -16.207  1.00  0.00     0.036 C 
HETATM   16  C   UNL     1       1.052   5.249 -14.969  1.00  0.00     0.005 C 
HETATM   17  C   UNL     1       1.424   4.901 -13.679  1.00  0.00     0.029 C 
BRANCH  14  18
HETATM   18  O   UNL     1       2.749   5.412 -18.061  1.00  0.00    -0.361 OA
ATOM     19  HO  UNL     1       2.496   6.319 -18.189  1.00  0.00     0.217 HD
ENDBRANCH  14  18
ENDBRANCH   8  10
ENDBRANCH   4   8
BRANCH   2  20
HETATM   20  O   UNL     1       0.150   1.759  -9.337  1.00  0.00    -0.360 OA
ATOM     21  HO  UNL     1       0.289   2.675  -9.126  1.00  0.00     0.217 HD
ENDBRANCH   2  20
BRANCH   5  22
HETATM   22  C   UNL     1       0.960  -1.024  -8.997  1.00  0.00     0.149 C 
HETATM   23  C   UNL     1      -0.431  -1.592  -9.194  1.00  0.00     0.044 C 
BRANCH  22  24
HETATM   24  O   UNL     1       0.952  -0.299  -7.780  1.00  0.00    -0.391 OA
ATOM     25  HO  UNL     1       1.226   0.589  -7.978  1.00  0.00     0.210 HD
ENDBRANCH  22  24
ENDBRANCH   5  22
TORSDOF 6
ENDMDL
MODEL 4
REMARK VINA RESULT:      -8.5      1.666      2.356
REMARK  6 active torsions:
REMARK  status: ('A' for Active; 'I' for Inactive)
REMARK    1  A    between atoms: C_4  and  O_7 
REMARK    2  A    between atoms: C_9  and  N_19 
REMARK    3  A    between atoms: C_10  and  O_12 
REMARK    4  A    between atoms: O_14  and  C_22 
REMARK    5  A    between atoms: C_17  and  N_19 
REMARK    6  A    between atoms: C_21  and  C_22 
ROOT
HETATM    1  C   UNL     1       3.383   0.174 -11.582  1.00  0.00     0.029 C 
HETATM    2  C   UNL     1       0.917   1.138 -10.121  1.00  0.00     0.076 C 
HETATM    3  C   UNL     1       2.706  -1.011 -11.294  1.00  0.00     0.003 C 
HETATM    4  C   UNL     1       2.840   1.481 -11.637  1.00  0.00     0.035 C 
HETATM    5  C   UNL     1       0.870  -0.272  -9.841  1.00  0.00     0.003 C 
HETATM    6  C   UNL     1       1.477   1.717 -11.295  1.00  0.00     0.066 C 
HETATM    7  C   UNL     1       1.463  -1.192 -10.692  1.00  0.00     0.012 C 
ENDROOT
BRANCH   4   8
HETATM    8  N   UNL     1       3.706   2.580 -11.901  1.00  0.00    -0.356 N 
ATOM      9  HN  UNL     1       4.240   2.892 -11.090  1.00  0.00     0.166 HD
BRANCH   8  10
HETATM   10  C   UNL     1       3.959   3.310 -13.060  1.00  0.00     0.032 C 
HETATM   11  C   UNL     1       4.530   2.562 -14.183  1.00  0.00     0.029 C 
HETATM   12  C   UNL     1       4.108   2.564 -15.502  1.00  0.00     0.005 C 
HETATM   13  C   UNL     1       3.824   3.595 -16.408  1.00  0.00     0.036 C 
HETATM   14  C   UNL     1       2.834   4.652 -16.307  1.00  0.00     0.065 C 
HETATM   15  C   UNL     1       2.580   5.519 -15.146  1.00  0.00     0.036 C 
HETATM   16  C   UNL     1       3.471   5.637 -14.071  1.00  0.00     0.005 C 
HETATM   17  C   UNL     1       3.774   4.750 -13.049  1.00  0.00     0.029 C 
BRANCH  14  18
HETATM   18  O   UNL     1       2.595   5.269 -17.472  1.00  0.00    -0.361 OA
ATOM     19  HO  UNL     1       1.689   5.534 -17.579  1.00  0.00     0.217 HD
ENDBRANCH  14  18
ENDBRANCH   8  10
ENDBRANCH   4   8
BRANCH   2  20
HETATM   20  O   UNL     1       0.491   2.010  -9.174  1.00  0.00    -0.360 OA
ATOM     21  HO  UNL     1       0.456   1.725  -8.268  1.00  0.00     0.217 HD
ENDBRANCH   2  20
BRANCH   5  22
HETATM   22  C   UNL     1       0.089  -0.835  -8.659  1.00  0.00     0.149 C 
HETATM   23  C   UNL     1       0.899  -0.926  -7.380  1.00  0.00     0.044 C 
BRANCH  22  24
HETATM   24  O   UNL     1      -0.370  -2.141  -8.962  1.00  0.00    -0.391 OA
ATOM     25  HO  UNL     1      -1.317  -2.099  -9.026  1.00  0.00     0.210 HD
ENDBRANCH  22  24
ENDBRANCH   5  22
TORSDOF 6
ENDMDL
MODEL 5
REMARK VINA RESULT:      -8.5      1.319      2.066
REMARK  6 active torsions:
REMARK  status: ('A' for Active; 'I' for Inactive)
REMARK    1  A    between atoms: C_4  and  O_7 
REMARK    2  A    between atoms: C_9  and  N_19 
REMARK    3  A    between atoms: C_10  and  O_12 
REMARK    4  A    between atoms: O_14  and  C_22 
REMARK    5  A    between atoms: C_17  and  N_19 
REMARK    6  A    between atoms: C_21  and  C_22 
ROOT
HETATM    1  C   UNL     1       1.661   2.128 -10.902  1.00  0.00     0.029 C 
HETATM    2  C   UNL     1       2.755  -0.668 -11.269  1.00  0.00     0.076 C 
HETATM    3  C   UNL     1       0.766   1.344 -10.174  1.00  0.00     0.003 C 
HETATM    4  C   UNL     1       2.984   1.794 -11.280  1.00  0.00     0.035 C 
HETATM    5  C   UNL     1       1.456  -0.949 -10.719  1.00  0.00     0.003 C 
HETATM    6  C   UNL     1       3.517   0.503 -10.998  1.00  0.00     0.066 C 
HETATM    7  C   UNL     1       0.801  -0.026  -9.918  1.00  0.00     0.012 C 
ENDROOT
BRANCH   4   8
HETATM    8  N   UNL     1       3.731   2.713 -12.070  1.00  0.00    -0.356 N 
ATOM      9  HN  UNL     1       4.495   3.167 -11.568  1.00  0.00     0.166 HD
BRANCH   8  10
HETATM   10  C   UNL     1       3.615   3.109 -13.401  1.00  0.00     0.032 C 
HETATM   11  C   UNL     1       2.778   4.284 -13.655  1.00  0.00     0.029 C 
HETATM   12  C   UNL     1       3.089   5.393 -14.421  1.00  0.00     0.005 C 
HETATM   13  C   UNL     1       3.590   5.541 -15.722  1.00  0.00     0.036 C 
HETATM   14  C   UNL     1       4.844   5.064 -16.277  1.00  0.00     0.065 C 
HETATM   15  C   UNL     1       5.415   3.715 -16.144  1.00  0.00     0.036 C 
HETATM   16  C   UNL     1       4.672   2.611 -15.705  1.00  0.00     0.005 C 
HETATM   17  C   UNL     1       4.202   2.285 -14.442  1.00  0.00     0.029 C 
BRANCH  14  18
HETATM   18  O   UNL     1       5.166   5.647 -17.440  1.00  0.00    -0.361 OA
ATOM     19  HO  UNL     1       5.934   6.204 -17.382  1.00  0.00     0.217 HD
ENDBRANCH  14  18
ENDBRANCH   8  10
ENDBRANCH   4   8
BRANCH   2  20
HETATM   20  O   UNL     1       3.274  -1.515 -12.192  1.00  0.00    -0.360 OA
ATOM     21  HO  UNL     1       3.925  -1.188 -12.801  1.00  0.00     0.217 HD
ENDBRANCH   2  20
BRANCH   5  22
HETATM   22  C   UNL     1       0.779  -2.303 -10.898  1.00  0.00     0.149 C 
HETATM   23  C   UNL     1      -0.490  -2.463 -10.085  1.00  0.00     0.044 C 
BRANCH  22  24
HETATM   24  O   UNL     1       1.663  -3.341 -10.511  1.00  0.00    -0.391 OA
ATOM     25  HO  UNL     1       1.305  -3.738  -9.725  1.00  0.00     0.210 HD
ENDBRANCH  22  24
ENDBRANCH   5  22
TORSDOF 6
ENDMDL
MODEL 6
REMARK VINA RESULT:      -8.5      1.804      7.692
REMARK  6 active torsions:
REMARK  status: ('A' for Active; 'I' for Inactive)
REMARK    1  A    between atoms: C_4  and  O_7 
REMARK    2  A    between atoms: C_9  and  N_19 
REMARK    3  A    between atoms: C_10  and  O_12 
REMARK    4  A    between atoms: O_14  and  C_22 
REMARK    5  A    between atoms: C_17  and  N_19 
REMARK    6  A    between atoms: C_21  and  C_22 
ROOT
HETATM    1  C   UNL     1       3.369   4.404 -12.708  1.00  0.00     0.029 C 
HETATM    2  C   UNL     1       2.035   4.424 -15.422  1.00  0.00     0.076 C 
HETATM    3  C   UNL     1       4.205   5.227 -13.461  1.00  0.00     0.003 C 
HETATM    4  C   UNL     1       2.016   4.081 -12.973  1.00  0.00     0.035 C 
HETATM    5  C   UNL     1       3.314   5.001 -15.738  1.00  0.00     0.003 C 
HETATM    6  C   UNL     1       1.379   4.539 -14.163  1.00  0.00     0.066 C 
HETATM    7  C   UNL     1       4.059   5.666 -14.776  1.00  0.00     0.012 C 
ENDROOT
BRANCH   4   8
HETATM    8  N   UNL     1       1.336   3.178 -12.107  1.00  0.00    -0.356 N 
ATOM      9  HN  UNL     1       0.338   3.367 -12.011  1.00  0.00     0.166 HD
BRANCH   8  10
HETATM   10  C   UNL     1       1.779   2.084 -11.367  1.00  0.00     0.032 C 
HETATM   11  C   UNL     1       0.991   1.746 -10.179  1.00  0.00     0.029 C 
HETATM   12  C   UNL     1       0.512   0.501  -9.809  1.00  0.00     0.005 C 
HETATM   13  C   UNL     1       1.120  -0.756  -9.693  1.00  0.00     0.036 C 
HETATM   14  C   UNL     1       1.787  -1.546 -10.712  1.00  0.00     0.065 C 
HETATM   15  C   UNL     1       2.795  -1.079 -11.675  1.00  0.00     0.036 C 
HETATM   16  C   UNL     1       3.472   0.141 -11.541  1.00  0.00     0.005 C 
HETATM   17  C   UNL     1       3.031   1.443 -11.725  1.00  0.00     0.029 C 
BRANCH  14  18
HETATM   18  O   UNL     1       1.965  -2.826 -10.360  1.00  0.00    -0.361 OA
ATOM     19  HO  UNL     1       1.216  -3.201  -9.912  1.00  0.00     0.217 HD
ENDBRANCH  14  18
ENDBRANCH   8  10
ENDBRANCH   4   8
BRANCH   2  20
HETATM   20  O   UNL     1       1.430   3.627 -16.337  1.00  0.00    -0.360 OA
ATOM     21  HO  UNL     1       0.951   2.864 -16.037  1.00  0.00     0.217 HD
ENDBRANCH   2  20
BRANCH   5  22
HETATM   22  C   UNL     1       3.870   5.003 -17.157  1.00  0.00     0.149 C 
HETATM   23  C   UNL     1       4.988   6.004 -17.373  1.00  0.00     0.044 C 
BRANCH  22  24
HETATM   24  O   UNL     1       2.840   5.314 -18.079  1.00  0.00    -0.391 OA
ATOM     25  HO  UNL     1       2.112   5.665 -17.581  1.00  0.00     0.210 HD
ENDBRANCH  22  24
ENDBRANCH   5  22
TORSDOF 6
ENDMDL
MODEL 7
REMARK VINA RESULT:      -8.4      1.733      7.764
REMARK  6 active torsions:
REMARK  status: ('A' for Active; 'I' for Inactive)
REMARK    1  A    between atoms: C_4  and  O_7 
REMARK    2  A    between atoms: C_9  and  N_19 
REMARK    3  A    between atoms: C_10  and  O_12 
REMARK    4  A    between atoms: O_14  and  C_22 
REMARK    5  A    between atoms: C_17  and  N_19 
REMARK    6  A    between atoms: C_21  and  C_22 
ROOT
HETATM    1  C   UNL     1       3.858   4.021 -12.544  1.00  0.00     0.029 C 
HETATM    2  C   UNL     1       2.056   4.194 -14.967  1.00  0.00     0.076 C 
HETATM    3  C   UNL     1       3.877   5.382 -12.851  1.00  0.00     0.003 C 
HETATM    4  C   UNL     1       2.884   3.068 -12.926  1.00  0.00     0.035 C 
HETATM    5  C   UNL     1       2.678   5.491 -14.991  1.00  0.00     0.003 C 
HETATM    6  C   UNL     1       1.810   3.432 -13.789  1.00  0.00     0.066 C 
HETATM    7  C   UNL     1       3.169   6.073 -13.833  1.00  0.00     0.012 C 
ENDROOT
BRANCH   4   8
HETATM    8  N   UNL     1       3.065   1.705 -12.554  1.00  0.00    -0.356 N 
ATOM      9  HN  UNL     1       3.637   1.170 -13.207  1.00  0.00     0.166 HD
BRANCH   8  10
HETATM   10  C   UNL     1       2.606   0.967 -11.466  1.00  0.00     0.032 C 
HETATM   11  C   UNL     1       1.903   1.720 -10.424  1.00  0.00     0.029 C 
HETATM   12  C   UNL     1       0.688   1.416  -9.836  1.00  0.00     0.005 C 
HETATM   13  C   UNL     1       0.179   0.247  -9.253  1.00  0.00     0.036 C 
HETATM   14  C   UNL     1      -0.020  -1.060  -9.853  1.00  0.00     0.065 C 
HETATM   15  C   UNL     1       0.941  -1.813 -10.673  1.00  0.00     0.036 C 
HETATM   16  C   UNL     1       2.303  -1.494 -10.740  1.00  0.00     0.005 C 
HETATM   17  C   UNL     1       2.953  -0.439 -11.364  1.00  0.00     0.029 C 
BRANCH  14  18
HETATM   18  O   UNL     1      -0.820  -1.859  -9.134  1.00  0.00    -0.361 OA
ATOM     19  HO  UNL     1      -1.623  -2.092  -9.584  1.00  0.00     0.217 HD
ENDBRANCH  14  18
ENDBRANCH   8  10
ENDBRANCH   4   8
BRANCH   2  20
HETATM   20  O   UNL     1       1.761   3.585 -16.141  1.00  0.00    -0.360 OA
ATOM     21  HO  UNL     1       2.223   3.852 -16.927  1.00  0.00     0.217 HD
ENDBRANCH   2  20
BRANCH   5  22
HETATM   22  C   UNL     1       2.739   6.333 -16.261  1.00  0.00     0.149 C 
HETATM   23  C   UNL     1       3.996   6.112 -17.079  1.00  0.00     0.044 C 
BRANCH  22  24
HETATM   24  O   UNL     1       2.687   7.710 -15.931  1.00  0.00    -0.391 OA
ATOM     25  HO  UNL     1       3.290   7.851 -15.211  1.00  0.00     0.210 HD
ENDBRANCH  22  24
ENDBRANCH   5  22
TORSDOF 6
ENDMDL
MODEL 8
REMARK VINA RESULT:      -8.1      1.873      2.777
REMARK  6 active torsions:
REMARK  status: ('A' for Active; 'I' for Inactive)
REMARK    1  A    between atoms: C_4  and  O_7 
REMARK    2  A    between atoms: C_9  and  N_19 
REMARK    3  A    between atoms: C_10  and  O_12 
REMARK    4  A    between atoms: O_14  and  C_22 
REMARK    5  A    between atoms: C_17  and  N_19 
REMARK    6  A    between atoms: C_21  and  C_22 
ROOT
HETATM    1  C   UNL     1       3.414   0.233 -11.904  1.00  0.00     0.029 C 
HETATM    2  C   UNL     1       1.153   1.189 -10.137  1.00  0.00     0.076 C 
HETATM    3  C   UNL     1       2.921  -0.952 -11.356  1.00  0.00     0.003 C 
HETATM    4  C   UNL     1       2.740   1.473 -12.012  1.00  0.00     0.035 C 
HETATM    5  C   UNL     1       1.300  -0.169  -9.687  1.00  0.00     0.003 C 
HETATM    6  C   UNL     1       1.440   1.646 -11.454  1.00  0.00     0.066 C 
HETATM    7  C   UNL     1       1.826  -1.147 -10.518  1.00  0.00     0.012 C 
ENDROOT
BRANCH   4   8
HETATM    8  N   UNL     1       3.430   2.590 -12.562  1.00  0.00    -0.356 N 
ATOM      9  HN  UNL     1       4.053   3.059 -11.903  1.00  0.00     0.166 HD
BRANCH   8  10
HETATM   10  C   UNL     1       3.415   3.164 -13.831  1.00  0.00     0.032 C 
HETATM   11  C   UNL     1       2.646   4.404 -13.970  1.00  0.00     0.029 C 
HETATM   12  C   UNL     1       3.053   5.588 -14.561  1.00  0.00     0.005 C 
HETATM   13  C   UNL     1       3.640   5.881 -15.799  1.00  0.00     0.036 C 
HETATM   14  C   UNL     1       4.905   5.418 -16.342  1.00  0.00     0.065 C 
HETATM   15  C   UNL     1       5.408   4.037 -16.361  1.00  0.00     0.036 C 
HETATM   16  C   UNL     1       4.593   2.924 -16.118  1.00  0.00     0.005 C 
HETATM   17  C   UNL     1       4.030   2.457 -14.939  1.00  0.00     0.029 C 
BRANCH  14  18
HETATM   18  O   UNL     1       5.324   6.133 -17.395  1.00  0.00    -0.361 OA
ATOM     19  HO  UNL     1       5.493   5.605 -18.166  1.00  0.00     0.217 HD
ENDBRANCH  14  18
ENDBRANCH   8  10
ENDBRANCH   4   8
BRANCH   2  20
HETATM   20  O   UNL     1       0.812   2.146  -9.238  1.00  0.00    -0.360 OA
ATOM     21  HO  UNL     1       1.414   2.348  -8.531  1.00  0.00     0.217 HD
ENDBRANCH   2  20
BRANCH   5  22
HETATM   22  C   UNL     1       0.797  -0.626  -8.322  1.00  0.00     0.149 C 
HETATM   23  C   UNL     1      -0.713  -0.740  -8.236  1.00  0.00     0.044 C 
BRANCH  22  24
HETATM   24  O   UNL     1       1.209   0.290  -7.323  1.00  0.00    -0.391 OA
ATOM     25  HO  UNL     1       1.496   1.081  -7.766  1.00  0.00     0.210 HD
ENDBRANCH  22  24
ENDBRANCH   5  22
TORSDOF 6
ENDMDL
MODEL 9
REMARK VINA RESULT:      -8.1      2.356      3.009
REMARK  6 active torsions:
REMARK  status: ('A' for Active; 'I' for Inactive)
REMARK    1  A    between atoms: C_4  and  O_7 
REMARK    2  A    between atoms: C_9  and  N_19 
REMARK    3  A    between atoms: C_10  and  O_12 
REMARK    4  A    between atoms: O_14  and  C_22 
REMARK    5  A    between atoms: C_17  and  N_19 
REMARK    6  A    between atoms: C_21  and  C_22 
ROOT
HETATM    1  C   UNL     1       4.056   4.286 -10.429  1.00  0.00     0.029 C 
HETATM    2  C   UNL     1       1.892   2.411 -11.404  1.00  0.00     0.076 C 
HETATM    3  C   UNL     1       4.114   3.237  -9.512  1.00  0.00     0.003 C 
HETATM    4  C   UNL     1       3.506   4.256 -11.734  1.00  0.00     0.035 C 
HETATM    5  C   UNL     1       2.164   1.866 -10.101  1.00  0.00     0.003 C 
HETATM    6  C   UNL     1       2.844   3.090 -12.217  1.00  0.00     0.066 C 
HETATM    7  C   UNL     1       3.398   2.042  -9.493  1.00  0.00     0.012 C 
ENDROOT
BRANCH   4   8
HETATM    8  N   UNL     1       3.496   5.450 -12.509  1.00  0.00    -0.356 N 
ATOM      9  HN  UNL     1       3.180   6.274 -11.997  1.00  0.00     0.166 HD
BRANCH   8  10
HETATM   10  C   UNL     1       3.837   5.704 -13.835  1.00  0.00     0.032 C 
HETATM   11  C   UNL     1       5.101   5.125 -14.300  1.00  0.00     0.029 C 
HETATM   12  C   UNL     1       5.322   4.395 -15.455  1.00  0.00     0.005 C 
HETATM   13  C   UNL     1       4.998   4.622 -16.800  1.00  0.00     0.036 C 
HETATM   14  C   UNL     1       3.691   4.795 -17.407  1.00  0.00     0.065 C 
HETATM   15  C   UNL     1       2.603   5.665 -16.935  1.00  0.00     0.036 C 
HETATM   16  C   UNL     1       2.793   6.679 -15.988  1.00  0.00     0.005 C 
HETATM   17  C   UNL     1       3.016   6.607 -14.620  1.00  0.00     0.029 C 
BRANCH  14  18
HETATM   18  O   UNL     1       3.703   4.664 -18.741  1.00  0.00    -0.361 OA
ATOM     19  HO  UNL     1       3.242   5.362 -19.192  1.00  0.00     0.217 HD
ENDBRANCH  14  18
ENDBRANCH   8  10
ENDBRANCH   4   8
BRANCH   2  20
HETATM   20  O   UNL     1       0.622   2.377 -11.878  1.00  0.00    -0.360 OA
ATOM     21  HO  UNL     1      -0.068   2.790 -11.374  1.00  0.00     0.217 HD
ENDBRANCH   2  20
BRANCH   5  22
HETATM   22  C   UNL     1       1.157   0.988  -9.367  1.00  0.00     0.149 C 
HETATM   23  C   UNL     1       0.887  -0.336 -10.056  1.00  0.00     0.044 C 
BRANCH  22  24
HETATM   24  O   UNL     1      -0.082   1.665  -9.252  1.00  0.00    -0.391 OA
ATOM     25  HO  UNL     1      -0.097   2.084  -8.400  1.00  0.00     0.210 HD
ENDBRANCH  22  24
ENDBRANCH   5  22
TORSDOF 6
ENDMDL
