REMARK  4 active torsions:
REMARK  status: ('A' for Active; 'I' for Inactive)
REMARK    1  A    between atoms: N_3  and  C_6 
REMARK    2  A    between atoms: C_4  and  O_37 
REMARK    3  A    between atoms: O_14  and  C_21 
REMARK    4  A    between atoms: O_16  and  C_18 
ROOT
HETATM    1  C   UNL     1      15.341   4.601  15.949  1.00  0.00    -0.018 C 
HETATM    2  C   UNL     1      16.432   4.402  13.364  1.00  0.00     0.192 C 
HETATM    3  O   UNL     1      14.722   7.148  12.243  1.00  0.00    -0.288 OA
HETATM    4  C   UNL     1      16.066   3.334  15.551  1.00  0.00     0.218 C 
HETATM    5  C   UNL     1      14.565   5.064  11.258  1.00  0.00     0.067 C 
HETATM    6  C   UNL     1      14.667   5.513  14.930  1.00  0.00     0.062 C 
HETATM    7  C   UNL     1      14.671   4.667  18.440  1.00  0.00     0.015 C 
HETATM    8  C   UNL     1      15.816   4.498  10.920  1.00  0.00    -0.017 C 
HETATM    9  C   UNL     1      17.170   2.914   7.949  1.00  0.00     0.034 C 
HETATM   10  C   UNL     1      13.960   6.850  19.194  1.00  0.00     0.099 C 
HETATM   11  C   UNL     1      17.747   3.164  11.718  1.00  0.00     0.186 C 
HETATM   12  C   UNL     1      14.661   5.862  12.378  1.00  0.00     0.180 C 
HETATM   13  C   UNL     1      14.669   7.420  18.117  1.00  0.00     0.105 C 
HETATM   14  C   UNL     1      15.006   5.245  17.224  1.00  0.00    -0.020 C 
HETATM   15  C   UNL     1      18.315   3.045  10.450  1.00  0.00    -0.025 C 
HETATM   16  C   UNL     1      16.019   4.431   9.547  1.00  0.00     0.015 C 
HETATM   17  C   UNL     1      18.227   1.879   8.252  1.00  0.00     0.009 C 
HETATM   18  C   UNL     1      16.602   3.960  11.930  1.00  0.00     0.062 C 
HETATM   19  C   UNL     1      14.813   6.611  16.998  1.00  0.00    -0.011 C 
HETATM   20  C   UNL     1      15.197   5.257  13.561  1.00  0.00     0.038 C 
HETATM   21  O   UNL     1      18.255   2.469  12.657  1.00  0.00    -0.287 OA
HETATM   22  C   UNL     1      17.202   4.037   8.946  1.00  0.00    -0.075 C 
HETATM   23  C   UNL     1      14.830   6.921  15.528  1.00  0.00     0.056 C 
HETATM   24  C   UNL     1      18.449   1.736   9.736  1.00  0.00     0.039 C 
HETATM   25  N   UNL     1      16.203   3.180  14.114  1.00  0.00    -0.359 N 
ATOM     26  HN  UNL     1      16.142   2.269  13.659  1.00  0.00     0.159 HD
HETATM   27  C   UNL     1      18.401   4.240   9.683  1.00  0.00     0.072 C 
HETATM   28  C   UNL     1      14.093   5.478  19.417  1.00  0.00     0.040 C 
ENDROOT
BRANCH   4  29
HETATM   29  N   UNL     1      17.387   3.005  16.114  1.00  0.00    -0.341 N 
HETATM   30  C   UNL     1      17.678   1.669  16.216  1.00  0.00     0.093 C 
HETATM   31  C   UNL     1      18.965   1.240  15.943  1.00  0.00     0.017 C 
HETATM   32  C   UNL     1      19.988   2.166  15.748  1.00  0.00     0.003 C 
HETATM   33  C   UNL     1      19.707   3.509  15.964  1.00  0.00     0.017 C 
HETATM   34  C   UNL     1      18.404   3.917  16.221  1.00  0.00     0.093 C 
ENDBRANCH   4  29
BRANCH   2  35
HETATM   35  O   UNL     1      17.535   5.110  13.775  1.00  0.00    -0.363 OA
ATOM     36  HO  UNL     1      17.428   5.388  14.677  1.00  0.00     0.213 HD
ENDBRANCH   2  35
BRANCH  13  37
HETATM   37  O   UNL     1      15.265   8.645  18.260  1.00  0.00    -0.357 OA
ATOM     38  HO  UNL     1      15.743   9.029  17.534  1.00  0.00     0.217 HD
ENDBRANCH  13  37
BRANCH  10  39
HETATM   39  O   UNL     1      13.107   7.612  19.918  1.00  0.00    -0.358 OA
ATOM     40  HO  UNL     1      12.629   7.228  20.644  1.00  0.00     0.217 HD
ENDBRANCH  10  39
TORSDOF 4
