MODEL 1
REMARK VINA RESULT:      -8.9      0.000      0.000
REMARK  4 active torsions:
REMARK  status: ('A' for Active; 'I' for Inactive)
REMARK    1  A    between atoms: O_3  and  C_16 
REMARK    2  A    between atoms: C_10  and  N_34 
REMARK    3  A    between atoms: C_15  and  C_32 
REMARK    4  A    between atoms: C_25  and  C_26 
ROOT
HETATM    1  C   UNL     1     -35.247 -12.006  -7.786  1.00  0.00    -0.052 C 
HETATM    2  C   UNL     1     -32.590 -12.802  -8.045  1.00  0.00     0.214 C 
HETATM    3  O   UNL     1     -31.361 -13.162  -8.221  1.00  0.00    -0.285 OA
HETATM    4  C   UNL     1     -32.994 -11.458  -8.309  1.00  0.00     0.119 C 
HETATM    5  C   UNL     1     -34.359 -11.230  -8.570  1.00  0.00     0.048 C 
HETATM    6  C   UNL     1     -36.252 -11.328  -6.885  1.00  0.00     0.049 C 
HETATM    7  C   UNL     1     -33.575 -13.732  -7.602  1.00  0.00     0.040 C 
HETATM    8  C   UNL     1     -34.941 -13.391  -7.637  1.00  0.00    -0.030 C 
ENDROOT
BRANCH   4   9
HETATM    9  O   UNL     1     -32.123 -10.414  -8.136  1.00  0.00    -0.352 OA
HETATM   10  C   UNL     1     -31.882  -9.955  -6.805  1.00  0.00     0.210 C 
ENDBRANCH   4   9
BRANCH   7  11
HETATM   11  C   UNL     1     -33.177 -14.993  -6.901  1.00  0.00     0.294 C 
HETATM   12  C   UNL     1     -33.452 -14.947  -5.452  1.00  0.00    -0.016 C 
HETATM   13  C   UNL     1     -33.192 -16.247  -5.052  1.00  0.00    -0.036 C 
HETATM   14  C   UNL     1     -33.877 -13.971  -4.533  1.00  0.00     0.010 C 
HETATM   15  C   UNL     1     -32.556 -16.423  -3.727  1.00  0.00     0.035 C 
HETATM   16  C   UNL     1     -33.334 -17.167  -6.241  1.00  0.00     0.310 C 
HETATM   17  C   UNL     1     -33.055 -15.433  -2.741  1.00  0.00    -0.018 C 
HETATM   18  C   UNL     1     -31.046 -16.295  -3.837  1.00  0.00     0.019 C 
HETATM   19  C   UNL     1     -33.625 -14.224  -3.171  1.00  0.00    -0.003 C 
HETATM   20  N   UNL     1     -33.922 -16.205  -7.207  1.00  0.00     0.111 N 
BRANCH  20  21
HETATM   21  C   UNL     1     -34.164 -16.225  -8.657  1.00  0.00     0.235 C 
HETATM   22  C   UNL     1     -34.743 -17.661  -8.928  1.00  0.00     0.085 C 
HETATM   23  C   UNL     1     -34.771 -17.865 -10.427  1.00  0.00     0.162 C 
HETATM   24  O   UNL     1     -35.220 -19.096 -10.929  1.00  0.00    -0.341 OA
HETATM   25  C   UNL     1     -34.037 -17.034 -11.457  1.00  0.00     0.112 C 
HETATM   26  C   UNL     1     -35.582 -19.029 -12.255  1.00  0.00     0.095 C 
HETATM   27  C   UNL     1     -35.661 -20.139 -13.108  1.00  0.00     0.039 C 
HETATM   28  C   UNL     1     -35.920 -17.669 -12.748  1.00  0.00     0.062 C 
HETATM   29  C   UNL     1     -36.296 -20.096 -14.351  1.00  0.00     0.003 C 
HETATM   30  C   UNL     1     -37.310 -19.306 -14.833  1.00  0.00     0.000 C 
HETATM   31  C   UNL     1     -37.865 -18.201 -14.203  1.00  0.00     0.002 C 
HETATM   32  C   UNL     1     -37.189 -17.409 -13.257  1.00  0.00     0.032 C 
HETATM   33  N   UNL     1     -34.908 -16.753 -12.601  1.00  0.00    -0.381 N 
ATOM     34  HN  UNL     1     -34.776 -15.956 -13.225  1.00  0.00     0.160 HD
HETATM   35  C   UNL     1     -33.349 -15.784 -10.941  1.00  0.00     0.030 C 
HETATM   36  C   UNL     1     -32.874 -16.034  -9.497  1.00  0.00     0.038 C 
ENDBRANCH  20  21
ENDBRANCH   7  11
TORSDOF 4
ENDMDL
MODEL 2
REMARK VINA RESULT:      -7.9      3.165      5.455
REMARK  4 active torsions:
REMARK  status: ('A' for Active; 'I' for Inactive)
REMARK    1  A    between atoms: O_3  and  C_16 
REMARK    2  A    between atoms: C_10  and  N_34 
REMARK    3  A    between atoms: C_15  and  C_32 
REMARK    4  A    between atoms: C_25  and  C_26 
ROOT
HETATM    1  C   UNL     1     -36.751 -14.031 -13.540  1.00  0.00    -0.052 C 
HETATM    2  C   UNL     1     -34.103 -14.896 -13.603  1.00  0.00     0.214 C 
HETATM    3  O   UNL     1     -32.883 -15.312 -13.688  1.00  0.00    -0.285 OA
HETATM    4  C   UNL     1     -34.547 -13.793 -14.397  1.00  0.00     0.119 C 
HETATM    5  C   UNL     1     -35.929 -13.683 -14.639  1.00  0.00     0.048 C 
HETATM    6  C   UNL     1     -37.706 -13.017 -12.956  1.00  0.00     0.049 C 
HETATM    7  C   UNL     1     -35.042 -15.530 -12.738  1.00  0.00     0.040 C 
HETATM    8  C   UNL     1     -36.413 -15.219 -12.826  1.00  0.00    -0.030 C 
ENDROOT
BRANCH   4   9
HETATM    9  O   UNL     1     -33.684 -12.789 -14.750  1.00  0.00    -0.352 OA
HETATM   10  C   UNL     1     -33.994 -11.459 -14.331  1.00  0.00     0.210 C 
ENDBRANCH   4   9
BRANCH   7  11
HETATM   11  C   UNL     1     -34.578 -16.367 -11.588  1.00  0.00     0.294 C 
HETATM   12  C   UNL     1     -34.821 -15.725 -10.282  1.00  0.00    -0.016 C 
HETATM   13  C   UNL     1     -34.500 -16.728  -9.385  1.00  0.00    -0.036 C 
HETATM   14  C   UNL     1     -35.265 -14.465  -9.842  1.00  0.00     0.010 C 
HETATM   15  C   UNL     1     -33.829 -16.314  -8.133  1.00  0.00     0.035 C 
HETATM   16  C   UNL     1     -34.631 -18.067 -10.072  1.00  0.00     0.310 C 
HETATM   17  C   UNL     1     -34.345 -15.015  -7.635  1.00  0.00    -0.018 C 
HETATM   18  C   UNL     1     -32.327 -16.203  -8.342  1.00  0.00     0.019 C 
HETATM   19  C   UNL     1     -34.973 -14.116  -8.510  1.00  0.00    -0.003 C 
HETATM   20  N   UNL     1     -35.279 -17.616 -11.330  1.00  0.00     0.111 N 
BRANCH  20  21
HETATM   21  C   UNL     1     -35.552 -18.250 -12.628  1.00  0.00     0.235 C 
HETATM   22  C   UNL     1     -37.078 -17.962 -12.880  1.00  0.00     0.085 C 
HETATM   23  C   UNL     1     -37.510 -18.803 -14.060  1.00  0.00     0.162 C 
HETATM   24  O   UNL     1     -38.853 -18.750 -14.467  1.00  0.00    -0.341 OA
HETATM   25  C   UNL     1     -36.757 -19.977 -14.648  1.00  0.00     0.112 C 
HETATM   26  C   UNL     1     -39.038 -19.212 -15.749  1.00  0.00     0.095 C 
HETATM   27  C   UNL     1     -40.266 -19.660 -16.256  1.00  0.00     0.039 C 
HETATM   28  C   UNL     1     -37.827 -19.188 -16.610  1.00  0.00     0.062 C 
HETATM   29  C   UNL     1     -40.499 -19.852 -17.619  1.00  0.00     0.003 C 
HETATM   30  C   UNL     1     -39.935 -19.281 -18.732  1.00  0.00     0.000 C 
HETATM   31  C   UNL     1     -38.831 -18.441 -18.758  1.00  0.00     0.002 C 
HETATM   32  C   UNL     1     -37.820 -18.434 -17.779  1.00  0.00     0.032 C 
HETATM   33  N   UNL     1     -36.772 -19.913 -16.111  1.00  0.00    -0.381 N 
ATOM     34  HN  UNL     1     -36.071 -20.361 -16.701  1.00  0.00     0.160 HD
HETATM   35  C   UNL     1     -35.362 -20.216 -14.101  1.00  0.00     0.030 C 
HETATM   36  C   UNL     1     -35.322 -19.784 -12.624  1.00  0.00     0.038 C 
ENDBRANCH  20  21
ENDBRANCH   7  11
TORSDOF 4
ENDMDL
MODEL 3
REMARK VINA RESULT:      -7.1      2.998      8.513
REMARK  4 active torsions:
REMARK  status: ('A' for Active; 'I' for Inactive)
REMARK    1  A    between atoms: O_3  and  C_16 
REMARK    2  A    between atoms: C_10  and  N_34 
REMARK    3  A    between atoms: C_15  and  C_32 
REMARK    4  A    between atoms: C_25  and  C_26 
ROOT
HETATM    1  C   UNL     1     -34.957 -12.457 -13.170  1.00  0.00    -0.052 C 
HETATM    2  C   UNL     1     -36.988 -14.288 -12.633  1.00  0.00     0.214 C 
HETATM    3  O   UNL     1     -37.965 -15.093 -12.374  1.00  0.00    -0.285 OA
HETATM    4  C   UNL     1     -37.051 -13.414 -13.762  1.00  0.00     0.119 C 
HETATM    5  C   UNL     1     -36.240 -12.264 -13.738  1.00  0.00     0.048 C 
HETATM    6  C   UNL     1     -33.717 -12.193 -13.991  1.00  0.00     0.049 C 
HETATM    7  C   UNL     1     -35.835 -14.233 -11.797  1.00  0.00     0.040 C 
HETATM    8  C   UNL     1     -34.890 -13.200 -11.954  1.00  0.00    -0.030 C 
ENDROOT
BRANCH   4   9
HETATM    9  O   UNL     1     -37.733 -13.776 -14.894  1.00  0.00    -0.352 OA
HETATM   10  C   UNL     1     -36.988 -14.342 -15.973  1.00  0.00     0.210 C 
ENDBRANCH   4   9
BRANCH   7  11
HETATM   11  C   UNL     1     -35.492 -15.374 -10.890  1.00  0.00     0.294 C 
HETATM   12  C   UNL     1     -34.999 -16.555 -11.624  1.00  0.00    -0.016 C 
HETATM   13  C   UNL     1     -34.576 -17.391 -10.605  1.00  0.00    -0.036 C 
HETATM   14  C   UNL     1     -34.887 -16.933 -12.973  1.00  0.00     0.010 C 
HETATM   15  C   UNL     1     -34.806 -18.841 -10.792  1.00  0.00     0.035 C 
HETATM   16  C   UNL     1     -34.267 -16.561  -9.381  1.00  0.00     0.310 C 
HETATM   17  C   UNL     1     -34.622 -19.249 -12.207  1.00  0.00    -0.018 C 
HETATM   18  C   UNL     1     -36.207 -19.223 -10.344  1.00  0.00     0.019 C 
HETATM   19  C   UNL     1     -34.738 -18.307 -13.241  1.00  0.00    -0.003 C 
HETATM   20  N   UNL     1     -34.360 -15.211  -9.990  1.00  0.00     0.111 N 
BRANCH  20  21
HETATM   21  C   UNL     1     -34.413 -13.843  -9.453  1.00  0.00     0.235 C 
HETATM   22  C   UNL     1     -32.907 -13.484  -9.175  1.00  0.00     0.085 C 
HETATM   23  C   UNL     1     -32.885 -12.202  -8.373  1.00  0.00     0.162 C 
HETATM   24  O   UNL     1     -31.646 -11.685  -7.965  1.00  0.00    -0.341 OA
HETATM   25  C   UNL     1     -34.058 -11.583  -7.642  1.00  0.00     0.112 C 
HETATM   26  C   UNL     1     -31.713 -10.356  -7.616  1.00  0.00     0.095 C 
HETATM   27  C   UNL     1     -30.775  -9.706  -6.801  1.00  0.00     0.039 C 
HETATM   28  C   UNL     1     -32.863  -9.611  -8.190  1.00  0.00     0.062 C 
HETATM   29  C   UNL     1     -30.699  -8.316  -6.693  1.00  0.00     0.003 C 
HETATM   30  C   UNL     1     -31.055  -7.311  -7.557  1.00  0.00     0.000 C 
HETATM   31  C   UNL     1     -31.755  -7.455  -8.746  1.00  0.00     0.002 C 
HETATM   32  C   UNL     1     -32.638  -8.516  -9.019  1.00  0.00     0.032 C 
HETATM   33  N   UNL     1     -34.089 -10.135  -7.862  1.00  0.00    -0.381 N 
ATOM     34  HN  UNL     1     -34.937  -9.573  -7.779  1.00  0.00     0.160 HD
HETATM   35  C   UNL     1     -35.410 -12.227  -7.882  1.00  0.00     0.030 C 
HETATM   36  C   UNL     1     -35.210 -13.734  -8.127  1.00  0.00     0.038 C 
ENDBRANCH  20  21
ENDBRANCH   7  11
TORSDOF 4
ENDMDL
MODEL 4
REMARK VINA RESULT:      -7.0      2.076      2.570
REMARK  4 active torsions:
REMARK  status: ('A' for Active; 'I' for Inactive)
REMARK    1  A    between atoms: O_3  and  C_16 
REMARK    2  A    between atoms: C_10  and  N_34 
REMARK    3  A    between atoms: C_15  and  C_32 
REMARK    4  A    between atoms: C_25  and  C_26 
ROOT
HETATM    1  C   UNL     1     -34.345 -10.964  -8.483  1.00  0.00    -0.052 C 
HETATM    2  C   UNL     1     -31.814 -11.764  -7.638  1.00  0.00     0.214 C 
HETATM    3  O   UNL     1     -30.620 -12.126  -7.299  1.00  0.00    -0.285 OA
HETATM    4  C   UNL     1     -32.074 -10.419  -8.045  1.00  0.00     0.119 C 
HETATM    5  C   UNL     1     -33.214 -10.189  -8.838  1.00  0.00     0.048 C 
HETATM    6  C   UNL     1     -35.629 -10.284  -8.069  1.00  0.00     0.049 C 
HETATM    7  C   UNL     1     -32.895 -12.692  -7.635  1.00  0.00     0.040 C 
HETATM    8  C   UNL     1     -34.129 -12.349  -8.222  1.00  0.00    -0.030 C 
ENDROOT
BRANCH   4   9
HETATM    9  O   UNL     1     -31.347  -9.377  -7.532  1.00  0.00    -0.352 OA
HETATM   10  C   UNL     1     -32.030  -8.413  -6.729  1.00  0.00     0.210 C 
ENDBRANCH   4   9
BRANCH   7  11
HETATM   11  C   UNL     1     -32.820 -13.953  -6.832  1.00  0.00     0.294 C 
HETATM   12  C   UNL     1     -33.398 -13.804  -5.484  1.00  0.00    -0.016 C 
HETATM   13  C   UNL     1     -33.395 -15.102  -5.005  1.00  0.00    -0.036 C 
HETATM   14  C   UNL     1     -33.892 -12.740  -4.707  1.00  0.00     0.010 C 
HETATM   15  C   UNL     1     -33.092 -15.283  -3.567  1.00  0.00     0.035 C 
HETATM   16  C   UNL     1     -33.383 -16.060  -6.173  1.00  0.00     0.310 C 
HETATM   17  C   UNL     1     -33.671 -14.194  -2.742  1.00  0.00    -0.018 C 
HETATM   18  C   UNL     1     -31.591 -15.334  -3.338  1.00  0.00     0.019 C 
HETATM   19  C   UNL     1     -33.980 -12.952  -3.318  1.00  0.00    -0.003 C 
HETATM   20  N   UNL     1     -33.621 -15.087  -7.269  1.00  0.00     0.111 N 
BRANCH  20  21
HETATM   21  C   UNL     1     -33.539 -15.151  -8.736  1.00  0.00     0.235 C 
HETATM   22  C   UNL     1     -35.028 -14.975  -9.210  1.00  0.00     0.085 C 
HETATM   23  C   UNL     1     -35.075 -15.296 -10.688  1.00  0.00     0.162 C 
HETATM   24  O   UNL     1     -36.313 -15.245 -11.347  1.00  0.00    -0.341 OA
HETATM   25  C   UNL     1     -34.007 -16.016 -11.483  1.00  0.00     0.112 C 
HETATM   26  C   UNL     1     -36.184 -15.151 -12.713  1.00  0.00     0.095 C 
HETATM   27  C   UNL     1     -37.191 -15.495 -13.626  1.00  0.00     0.039 C 
HETATM   28  C   UNL     1     -34.879 -14.622 -13.189  1.00  0.00     0.062 C 
HETATM   29  C   UNL     1     -37.151 -15.130 -14.973  1.00  0.00     0.003 C 
HETATM   30  C   UNL     1     -36.542 -14.082 -15.618  1.00  0.00     0.000 C 
HETATM   31  C   UNL     1     -35.648 -13.179 -15.062  1.00  0.00     0.002 C 
HETATM   32  C   UNL     1     -34.837 -13.456 -13.946  1.00  0.00     0.032 C 
HETATM   33  N   UNL     1     -33.794 -15.352 -12.771  1.00  0.00    -0.381 N 
ATOM     34  HN  UNL     1     -32.927 -15.424 -13.303  1.00  0.00     0.160 HD
HETATM   35  C   UNL     1     -32.703 -16.287 -10.757  1.00  0.00     0.030 C 
HETATM   36  C   UNL     1     -32.998 -16.507  -9.261  1.00  0.00     0.038 C 
ENDBRANCH  20  21
ENDBRANCH   7  11
TORSDOF 4
ENDMDL
MODEL 5
REMARK VINA RESULT:      -6.8      2.703      8.229
REMARK  4 active torsions:
REMARK  status: ('A' for Active; 'I' for Inactive)
REMARK    1  A    between atoms: O_3  and  C_16 
REMARK    2  A    between atoms: C_10  and  N_34 
REMARK    3  A    between atoms: C_15  and  C_32 
REMARK    4  A    between atoms: C_25  and  C_26 
ROOT
HETATM    1  C   UNL     1     -37.323 -13.873 -13.999  1.00  0.00    -0.052 C 
HETATM    2  C   UNL     1     -35.036 -15.464 -13.954  1.00  0.00     0.214 C 
HETATM    3  O   UNL     1     -33.972 -16.196 -13.990  1.00  0.00    -0.285 OA
HETATM    4  C   UNL     1     -34.981 -14.089 -14.340  1.00  0.00     0.119 C 
HETATM    5  C   UNL     1     -36.184 -13.479 -14.742  1.00  0.00     0.048 C 
HETATM    6  C   UNL     1     -38.127 -12.843 -13.241  1.00  0.00     0.049 C 
HETATM    7  C   UNL     1     -36.291 -16.005 -13.549  1.00  0.00     0.040 C 
HETATM    8  C   UNL     1     -37.476 -15.266 -13.734  1.00  0.00    -0.030 C 
ENDROOT
BRANCH   4   9
HETATM    9  O   UNL     1     -33.842 -13.351 -14.151  1.00  0.00    -0.352 OA
HETATM   10  C   UNL     1     -33.914 -11.940 -14.361  1.00  0.00     0.210 C 
ENDBRANCH   4   9
BRANCH   7  11
HETATM   11  C   UNL     1     -36.358 -17.259 -12.735  1.00  0.00     0.294 C 
HETATM   12  C   UNL     1     -36.255 -18.478 -13.559  1.00  0.00    -0.016 C 
HETATM   13  C   UNL     1     -36.149 -19.479 -12.610  1.00  0.00    -0.036 C 
HETATM   14  C   UNL     1     -36.238 -18.770 -14.934  1.00  0.00     0.010 C 
HETATM   15  C   UNL     1     -36.831 -20.758 -12.910  1.00  0.00     0.035 C 
HETATM   16  C   UNL     1     -35.619 -18.888 -11.325  1.00  0.00     0.310 C 
HETATM   17  C   UNL     1     -36.754 -21.097 -14.352  1.00  0.00    -0.018 C 
HETATM   18  C   UNL     1     -38.290 -20.698 -12.492  1.00  0.00     0.019 C 
HETATM   19  C   UNL     1     -36.535 -20.094 -15.309  1.00  0.00    -0.003 C 
HETATM   20  N   UNL     1     -35.256 -17.538 -11.826  1.00  0.00     0.111 N 
BRANCH  20  21
HETATM   21  C   UNL     1     -34.876 -16.272 -11.183  1.00  0.00     0.235 C 
HETATM   22  C   UNL     1     -34.236 -16.714  -9.817  1.00  0.00     0.085 C 
HETATM   23  C   UNL     1     -34.061 -15.471  -8.973  1.00  0.00     0.162 C 
HETATM   24  O   UNL     1     -33.534 -15.606  -7.679  1.00  0.00    -0.341 OA
HETATM   25  C   UNL     1     -34.715 -14.127  -9.211  1.00  0.00     0.112 C 
HETATM   26  C   UNL     1     -33.049 -14.420  -7.176  1.00  0.00     0.095 C 
HETATM   27  C   UNL     1     -32.860 -14.162  -5.812  1.00  0.00     0.039 C 
HETATM   28  C   UNL     1     -32.702 -13.398  -8.197  1.00  0.00     0.062 C 
HETATM   29  C   UNL     1     -32.111 -13.081  -5.342  1.00  0.00     0.003 C 
HETATM   30  C   UNL     1     -31.077 -12.372  -5.902  1.00  0.00     0.000 C 
HETATM   31  C   UNL     1     -30.614 -12.481  -7.205  1.00  0.00     0.002 C 
HETATM   32  C   UNL     1     -31.397 -12.922  -8.288  1.00  0.00     0.032 C 
HETATM   33  N   UNL     1     -33.747 -13.045  -9.015  1.00  0.00    -0.381 N 
ATOM     34  HN  UNL     1     -33.840 -12.124  -9.442  1.00  0.00     0.160 HD
HETATM   35  C   UNL     1     -35.481 -13.979 -10.513  1.00  0.00     0.030 C 
HETATM   36  C   UNL     1     -36.085 -15.343 -10.897  1.00  0.00     0.038 C 
ENDBRANCH  20  21
ENDBRANCH   7  11
TORSDOF 4
ENDMDL
MODEL 6
REMARK VINA RESULT:      -6.6      2.598      5.931
REMARK  4 active torsions:
REMARK  status: ('A' for Active; 'I' for Inactive)
REMARK    1  A    between atoms: O_3  and  C_16 
REMARK    2  A    between atoms: C_10  and  N_34 
REMARK    3  A    between atoms: C_15  and  C_32 
REMARK    4  A    between atoms: C_25  and  C_26 
ROOT
HETATM    1  C   UNL     1     -29.581 -14.481  -4.406  1.00  0.00    -0.052 C 
HETATM    2  C   UNL     1     -32.183 -13.511  -4.634  1.00  0.00     0.214 C 
HETATM    3  O   UNL     1     -33.404 -13.109  -4.767  1.00  0.00    -0.285 OA
HETATM    4  C   UNL     1     -31.881 -14.655  -3.832  1.00  0.00     0.119 C 
HETATM    5  C   UNL     1     -30.672 -15.327  -4.090  1.00  0.00     0.048 C 
HETATM    6  C   UNL     1     -28.338 -14.495  -3.548  1.00  0.00     0.049 C 
HETATM    7  C   UNL     1     -31.110 -12.843  -5.293  1.00  0.00     0.040 C 
HETATM    8  C   UNL     1     -29.826 -13.421  -5.328  1.00  0.00    -0.030 C 
ENDROOT
BRANCH   4   9
HETATM    9  O   UNL     1     -32.648 -14.970  -2.741  1.00  0.00    -0.352 OA
HETATM   10  C   UNL     1     -33.387 -16.192  -2.771  1.00  0.00     0.210 C 
ENDBRANCH   4   9
BRANCH   7  11
HETATM   11  C   UNL     1     -31.265 -11.433  -5.771  1.00  0.00     0.294 C 
HETATM   12  C   UNL     1     -29.988 -10.694  -5.783  1.00  0.00    -0.016 C 
HETATM   13  C   UNL     1     -30.326  -9.513  -6.421  1.00  0.00    -0.036 C 
HETATM   14  C   UNL     1     -28.676 -10.935  -5.339  1.00  0.00     0.010 C 
HETATM   15  C   UNL     1     -29.675  -8.278  -5.928  1.00  0.00     0.035 C 
HETATM   16  C   UNL     1     -31.551  -9.744  -7.272  1.00  0.00     0.310 C 
HETATM   17  C   UNL     1     -28.269  -8.522  -5.521  1.00  0.00    -0.018 C 
HETATM   18  C   UNL     1     -30.440  -7.705  -4.746  1.00  0.00     0.019 C 
HETATM   19  C   UNL     1     -27.841  -9.813  -5.176  1.00  0.00    -0.003 C 
HETATM   20  N   UNL     1     -31.630 -11.223  -7.164  1.00  0.00     0.111 N 
BRANCH  20  21
HETATM   21  C   UNL     1     -32.648 -12.225  -7.512  1.00  0.00     0.235 C 
HETATM   22  C   UNL     1     -32.047 -12.957  -8.768  1.00  0.00     0.085 C 
HETATM   23  C   UNL     1     -33.141 -13.821  -9.357  1.00  0.00     0.162 C 
HETATM   24  O   UNL     1     -32.863 -14.558 -10.519  1.00  0.00    -0.341 OA
HETATM   25  C   UNL     1     -34.621 -13.721  -9.056  1.00  0.00     0.112 C 
HETATM   26  C   UNL     1     -33.755 -15.586 -10.723  1.00  0.00     0.095 C 
HETATM   27  C   UNL     1     -33.980 -16.200 -11.963  1.00  0.00     0.039 C 
HETATM   28  C   UNL     1     -34.478 -16.043  -9.508  1.00  0.00     0.062 C 
HETATM   29  C   UNL     1     -34.663 -17.410 -12.096  1.00  0.00     0.003 C 
HETATM   30  C   UNL     1     -34.835 -18.463 -11.233  1.00  0.00     0.000 C 
HETATM   31  C   UNL     1     -34.472 -18.500  -9.894  1.00  0.00     0.002 C 
HETATM   32  C   UNL     1     -34.350 -17.360  -9.078  1.00  0.00     0.032 C 
HETATM   33  N   UNL     1     -35.198 -15.056  -8.880  1.00  0.00    -0.381 N 
ATOM     34  HN  UNL     1     -36.048 -15.235  -8.345  1.00  0.00     0.160 HD
HETATM   35  C   UNL     1     -35.012 -12.778  -7.934  1.00  0.00     0.030 C 
HETATM   36  C   UNL     1     -34.016 -11.604  -7.897  1.00  0.00     0.038 C 
ENDBRANCH  20  21
ENDBRANCH   7  11
TORSDOF 4
ENDMDL
MODEL 7
REMARK VINA RESULT:      -6.5      2.970      8.598
REMARK  4 active torsions:
REMARK  status: ('A' for Active; 'I' for Inactive)
REMARK    1  A    between atoms: O_3  and  C_16 
REMARK    2  A    between atoms: C_10  and  N_34 
REMARK    3  A    between atoms: C_15  and  C_32 
REMARK    4  A    between atoms: C_25  and  C_26 
ROOT
HETATM    1  C   UNL     1     -35.690 -12.016  -5.462  1.00  0.00    -0.052 C 
HETATM    2  C   UNL     1     -34.657 -12.063  -8.049  1.00  0.00     0.214 C 
HETATM    3  O   UNL     1     -34.229 -12.068  -9.269  1.00  0.00    -0.285 OA
HETATM    4  C   UNL     1     -35.062 -10.840  -7.430  1.00  0.00     0.119 C 
HETATM    5  C   UNL     1     -35.941 -10.928  -6.333  1.00  0.00     0.048 C 
HETATM    6  C   UNL     1     -35.369 -11.763  -4.008  1.00  0.00     0.049 C 
HETATM    7  C   UNL     1     -34.755 -13.269  -7.297  1.00  0.00     0.040 C 
HETATM    8  C   UNL     1     -35.434 -13.284  -6.062  1.00  0.00    -0.030 C 
ENDROOT
BRANCH   4   9
HETATM    9  O   UNL     1     -34.477  -9.650  -7.774  1.00  0.00    -0.352 OA
HETATM   10  C   UNL     1     -33.238  -9.307  -7.151  1.00  0.00     0.210 C 
ENDBRANCH   4   9
BRANCH   7  11
HETATM   11  C   UNL     1     -33.969 -14.481  -7.687  1.00  0.00     0.294 C 
HETATM   12  C   UNL     1     -34.267 -14.934  -9.059  1.00  0.00    -0.016 C 
HETATM   13  C   UNL     1     -33.316 -15.919  -9.268  1.00  0.00    -0.036 C 
HETATM   14  C   UNL     1     -35.198 -14.595 -10.056  1.00  0.00     0.010 C 
HETATM   15  C   UNL     1     -33.740 -17.101 -10.051  1.00  0.00     0.035 C 
HETATM   16  C   UNL     1     -32.146 -15.679  -8.343  1.00  0.00     0.310 C 
HETATM   17  C   UNL     1     -34.672 -16.731 -11.145  1.00  0.00    -0.018 C 
HETATM   18  C   UNL     1     -34.413 -18.125  -9.153  1.00  0.00     0.019 C 
HETATM   19  C   UNL     1     -35.413 -15.541 -11.077  1.00  0.00    -0.003 C 
HETATM   20  N   UNL     1     -32.528 -14.339  -7.832  1.00  0.00     0.111 N 
BRANCH  20  21
HETATM   21  C   UNL     1     -32.052 -13.484  -6.734  1.00  0.00     0.235 C 
HETATM   22  C   UNL     1     -31.148 -12.413  -7.448  1.00  0.00     0.085 C 
HETATM   23  C   UNL     1     -30.403 -11.657  -6.371  1.00  0.00     0.162 C 
HETATM   24  O   UNL     1     -29.495 -10.658  -6.756  1.00  0.00    -0.341 OA
HETATM   25  C   UNL     1     -30.243 -12.080  -4.926  1.00  0.00     0.112 C 
HETATM   26  C   UNL     1     -29.197  -9.787  -5.734  1.00  0.00     0.095 C 
HETATM   27  C   UNL     1     -28.051  -8.981  -5.695  1.00  0.00     0.039 C 
HETATM   28  C   UNL     1     -30.203  -9.728  -4.642  1.00  0.00     0.062 C 
HETATM   29  C   UNL     1     -27.907  -7.911  -4.809  1.00  0.00     0.003 C 
HETATM   30  C   UNL     1     -28.830  -7.107  -4.188  1.00  0.00     0.000 C 
HETATM   31  C   UNL     1     -30.206  -7.284  -4.183  1.00  0.00     0.002 C 
HETATM   32  C   UNL     1     -30.844  -8.527  -4.353  1.00  0.00     0.032 C 
HETATM   33  N   UNL     1     -30.441 -10.935  -4.034  1.00  0.00    -0.381 N 
ATOM     34  HN  UNL     1     -30.727 -11.026  -3.058  1.00  0.00     0.160 HD
HETATM   35  C   UNL     1     -31.050 -13.289  -4.491  1.00  0.00     0.030 C 
HETATM   36  C   UNL     1     -31.199 -14.248  -5.688  1.00  0.00     0.038 C 
ENDBRANCH  20  21
ENDBRANCH   7  11
TORSDOF 4
ENDMDL
MODEL 8
REMARK VINA RESULT:      -6.4      2.673      8.480
REMARK  4 active torsions:
REMARK  status: ('A' for Active; 'I' for Inactive)
REMARK    1  A    between atoms: O_3  and  C_16 
REMARK    2  A    between atoms: C_10  and  N_34 
REMARK    3  A    between atoms: C_15  and  C_32 
REMARK    4  A    between atoms: C_25  and  C_26 
ROOT
HETATM    1  C   UNL     1     -33.489 -15.137 -13.997  1.00  0.00    -0.052 C 
HETATM    2  C   UNL     1     -36.202 -15.295 -13.382  1.00  0.00     0.214 C 
HETATM    3  O   UNL     1     -37.457 -15.314 -13.076  1.00  0.00    -0.285 OA
HETATM    4  C   UNL     1     -35.714 -14.391 -14.376  1.00  0.00     0.119 C 
HETATM    5  C   UNL     1     -34.345 -14.062 -14.338  1.00  0.00     0.048 C 
HETATM    6  C   UNL     1     -32.412 -15.582 -14.959  1.00  0.00     0.049 C 
HETATM    7  C   UNL     1     -35.269 -16.153 -12.729  1.00  0.00     0.040 C 
HETATM    8  C   UNL     1     -33.885 -15.962 -12.903  1.00  0.00    -0.030 C 
ENDROOT
BRANCH   4   9
HETATM    9  O   UNL     1     -36.505 -14.009 -15.427  1.00  0.00    -0.352 OA
HETATM   10  C   UNL     1     -35.863 -13.593 -16.633  1.00  0.00     0.210 C 
ENDBRANCH   4   9
BRANCH   7  11
HETATM   11  C   UNL     1     -35.731 -17.391 -12.026  1.00  0.00     0.294 C 
HETATM   12  C   UNL     1     -35.696 -18.583 -12.895  1.00  0.00    -0.016 C 
HETATM   13  C   UNL     1     -35.971 -19.612 -12.010  1.00  0.00    -0.036 C 
HETATM   14  C   UNL     1     -35.460 -18.835 -14.257  1.00  0.00     0.010 C 
HETATM   15  C   UNL     1     -36.806 -20.723 -12.518  1.00  0.00     0.035 C 
HETATM   16  C   UNL     1     -35.607 -19.172 -10.612  1.00  0.00     0.310 C 
HETATM   17  C   UNL     1     -36.509 -21.031 -13.939  1.00  0.00    -0.018 C 
HETATM   18  C   UNL     1     -38.283 -20.389 -12.382  1.00  0.00     0.019 C 
HETATM   19  C   UNL     1     -35.919 -20.064 -14.768  1.00  0.00    -0.003 C 
HETATM   20  N   UNL     1     -34.905 -17.907 -10.945  1.00  0.00     0.111 N 
BRANCH  20  21
HETATM   21  C   UNL     1     -34.431 -16.758 -10.160  1.00  0.00     0.235 C 
HETATM   22  C   UNL     1     -34.127 -17.365  -8.741  1.00  0.00     0.085 C 
HETATM   23  C   UNL     1     -33.890 -16.209  -7.794  1.00  0.00     0.162 C 
HETATM   24  O   UNL     1     -33.630 -16.490  -6.443  1.00  0.00    -0.341 OA
HETATM   25  C   UNL     1     -34.250 -14.760  -8.041  1.00  0.00     0.112 C 
HETATM   26  C   UNL     1     -33.044 -15.434  -5.784  1.00  0.00     0.095 C 
HETATM   27  C   UNL     1     -33.055 -15.270  -4.392  1.00  0.00     0.039 C 
HETATM   28  C   UNL     1     -32.351 -14.452  -6.657  1.00  0.00     0.062 C 
HETATM   29  C   UNL     1     -32.225 -14.363  -3.729  1.00  0.00     0.003 C 
HETATM   30  C   UNL     1     -31.002 -13.834  -4.058  1.00  0.00     0.000 C 
HETATM   31  C   UNL     1     -30.343 -13.973  -5.271  1.00  0.00     0.002 C 
HETATM   32  C   UNL     1     -30.988 -14.219  -6.497  1.00  0.00     0.032 C 
HETATM   33  N   UNL     1     -33.159 -13.882  -7.610  1.00  0.00    -0.381 N 
ATOM     34  HN  UNL     1     -33.014 -12.943  -7.980  1.00  0.00     0.160 HD
HETATM   35  C   UNL     1     -34.737 -14.422  -9.437  1.00  0.00     0.030 C 
HETATM   36  C   UNL     1     -35.491 -15.636 -10.012  1.00  0.00     0.038 C 
ENDBRANCH  20  21
ENDBRANCH   7  11
TORSDOF 4
ENDMDL
MODEL 9
REMARK VINA RESULT:      -6.3      2.787      4.767
REMARK  4 active torsions:
REMARK  status: ('A' for Active; 'I' for Inactive)
REMARK    1  A    between atoms: O_3  and  C_16 
REMARK    2  A    between atoms: C_10  and  N_34 
REMARK    3  A    between atoms: C_15  and  C_32 
REMARK    4  A    between atoms: C_25  and  C_26 
ROOT
HETATM    1  C   UNL     1     -34.053 -16.260  -6.704  1.00  0.00    -0.052 C 
HETATM    2  C   UNL     1     -33.832 -14.404  -4.638  1.00  0.00     0.214 C 
HETATM    3  O   UNL     1     -33.786 -13.540  -3.678  1.00  0.00    -0.285 OA
HETATM    4  C   UNL     1     -34.414 -15.692  -4.425  1.00  0.00     0.119 C 
HETATM    5  C   UNL     1     -34.872 -16.392  -5.557  1.00  0.00     0.048 C 
HETATM    6  C   UNL     1     -33.434 -17.483  -7.338  1.00  0.00     0.049 C 
HETATM    7  C   UNL     1     -33.324 -14.095  -5.933  1.00  0.00     0.040 C 
HETATM    8  C   UNL     1     -33.586 -14.950  -7.022  1.00  0.00    -0.030 C 
ENDROOT
BRANCH   4   9
HETATM    9  O   UNL     1     -34.360 -16.293  -3.195  1.00  0.00    -0.352 OA
HETATM   10  C   UNL     1     -33.097 -16.781  -2.741  1.00  0.00     0.210 C 
ENDBRANCH   4   9
BRANCH   7  11
HETATM   11  C   UNL     1     -32.336 -12.988  -6.124  1.00  0.00     0.294 C 
HETATM   12  C   UNL     1     -31.013 -13.302  -5.551  1.00  0.00    -0.016 C 
HETATM   13  C   UNL     1     -30.230 -12.252  -5.999  1.00  0.00    -0.036 C 
HETATM   14  C   UNL     1     -30.473 -14.328  -4.756  1.00  0.00     0.010 C 
HETATM   15  C   UNL     1     -29.200 -11.742  -5.067  1.00  0.00     0.035 C 
HETATM   16  C   UNL     1     -30.857 -11.663  -7.241  1.00  0.00     0.310 C 
HETATM   17  C   UNL     1     -28.585 -12.836  -4.274  1.00  0.00    -0.018 C 
HETATM   18  C   UNL     1     -29.798 -10.718  -4.117  1.00  0.00     0.019 C 
HETATM   19  C   UNL     1     -29.265 -14.049  -4.088  1.00  0.00    -0.003 C 
HETATM   20  N   UNL     1     -31.900 -12.692  -7.481  1.00  0.00     0.111 N 
BRANCH  20  21
HETATM   21  C   UNL     1     -33.080 -12.773  -8.355  1.00  0.00     0.235 C 
HETATM   22  C   UNL     1     -32.656 -13.795  -9.473  1.00  0.00     0.085 C 
HETATM   23  C   UNL     1     -33.705 -13.738 -10.562  1.00  0.00     0.162 C 
HETATM   24  O   UNL     1     -33.536 -14.541 -11.701  1.00  0.00    -0.341 OA
HETATM   25  C   UNL     1     -34.745 -12.654 -10.748  1.00  0.00     0.112 C 
HETATM   26  C   UNL     1     -34.704 -14.716 -12.406  1.00  0.00     0.095 C 
HETATM   27  C   UNL     1     -34.762 -15.096 -13.754  1.00  0.00     0.039 C 
HETATM   28  C   UNL     1     -35.950 -14.495 -11.627  1.00  0.00     0.062 C 
HETATM   29  C   UNL     1     -35.935 -15.542 -14.366  1.00  0.00     0.003 C 
HETATM   30  C   UNL     1     -37.055 -16.153 -13.860  1.00  0.00     0.000 C 
HETATM   31  C   UNL     1     -37.357 -16.341 -12.519  1.00  0.00     0.002 C 
HETATM   32  C   UNL     1     -36.869 -15.529 -11.478  1.00  0.00     0.032 C 
HETATM   33  N   UNL     1     -36.047 -13.244 -11.068  1.00  0.00    -0.381 N 
ATOM     34  HN  UNL     1     -36.935 -12.774 -10.894  1.00  0.00     0.160 HD
HETATM   35  C   UNL     1     -34.843 -11.624  -9.637  1.00  0.00     0.030 C 
HETATM   36  C   UNL     1     -33.447 -11.421  -9.019  1.00  0.00     0.038 C 
ENDBRANCH  20  21
ENDBRANCH   7  11
TORSDOF 4
ENDMDL
