MODEL 1
REMARK VINA RESULT:      -8.8      0.000      0.000
REMARK  0 active torsions:
REMARK  status: ('A' for Active; 'I' for Inactive)
ROOT
HETATM    1  C   UNL     1      89.983  32.223  45.772  1.00  0.00     0.054 C 
HETATM    2  C   UNL     1      90.918  30.992  45.600  1.00  0.00     0.230 C 
HETATM    3  C   UNL     1      89.304  27.006  46.083  1.00  0.00     0.002 C 
HETATM    4  C   UNL     1      91.161  34.575  45.530  1.00  0.00     0.027 C 
HETATM    5  O   UNL     1      90.719  33.576  47.723  1.00  0.00    -0.382 OA
HETATM    6  N   UNL     1      91.520  30.827  46.941  1.00  0.00    -0.043 N 
ATOM      7  HN1 UNL     1      92.399  31.331  47.055  1.00  0.00     0.280 HD
ATOM      8  HN2 UNL     1      91.890  29.891  47.106  1.00  0.00     0.280 HD
HETATM    9  C   UNL     1      88.989  27.125  44.759  1.00  0.00     0.000 C 
HETATM   10  C   UNL     1      90.840  34.805  47.005  1.00  0.00     0.168 C 
HETATM   11  C   UNL     1      89.885  32.512  47.267  1.00  0.00     0.177 C 
HETATM   12  C   UNL     1      89.868  29.896  45.483  1.00  0.00    -0.001 C 
HETATM   13  C   UNL     1      90.442  33.387  44.899  1.00  0.00     0.012 C 
HETATM   14  C   UNL     1      89.387  28.023  47.021  1.00  0.00     0.030 C 
HETATM   15  N   UNL     1      89.317  30.275  47.834  1.00  0.00    -0.360 N 
ATOM     16  HN  UNL     1      88.552  30.266  48.508  1.00  0.00     0.161 HD
HETATM   17  C   UNL     1      88.942  28.230  43.949  1.00  0.00     0.001 C 
HETATM   18  C   UNL     1      89.404  29.384  46.705  1.00  0.00     0.038 C 
HETATM   19  C   UNL     1      89.446  29.494  44.241  1.00  0.00     0.011 C 
HETATM   20  C   UNL     1      90.493  31.224  47.905  1.00  0.00     0.314 C 
ENDROOT
TORSDOF 0
ENDMDL
MODEL 2
REMARK VINA RESULT:      -8.6      0.943      1.068
REMARK  0 active torsions:
REMARK  status: ('A' for Active; 'I' for Inactive)
ROOT
HETATM    1  C   UNL     1      90.326  32.166  46.755  1.00  0.00     0.054 C 
HETATM    2  C   UNL     1      91.188  30.948  46.315  1.00  0.00     0.230 C 
HETATM    3  C   UNL     1      89.257  27.176  45.438  1.00  0.00     0.002 C 
HETATM    4  C   UNL     1      91.685  34.357  47.335  1.00  0.00     0.027 C 
HETATM    5  O   UNL     1      90.914  32.819  49.081  1.00  0.00    -0.382 OA
HETATM    6  N   UNL     1      91.612  30.344  47.597  1.00  0.00    -0.043 N 
ATOM      7  HN1 UNL     1      92.503  30.703  47.939  1.00  0.00     0.280 HD
ATOM      8  HN2 UNL     1      91.894  29.368  47.511  1.00  0.00     0.280 HD
HETATM    9  C   UNL     1      89.112  27.702  44.185  1.00  0.00     0.000 C 
HETATM   10  C   UNL     1      91.205  34.183  48.774  1.00  0.00     0.168 C 
HETATM   11  C   UNL     1      90.070  32.021  48.252  1.00  0.00     0.177 C 
HETATM   12  C   UNL     1      90.087  30.044  45.779  1.00  0.00    -0.001 C 
HETATM   13  C   UNL     1      90.966  33.479  46.316  1.00  0.00     0.012 C 
HETATM   14  C   UNL     1      89.297  27.867  46.639  1.00  0.00     0.030 C 
HETATM   15  N   UNL     1      89.285  29.784  48.074  1.00  0.00    -0.360 N 
ATOM     16  HN  UNL     1      88.445  29.660  48.639  1.00  0.00     0.161 HD
HETATM   17  C   UNL     1      89.239  28.992  43.739  1.00  0.00     0.001 C 
HETATM   18  C   UNL     1      89.446  29.253  46.744  1.00  0.00     0.038 C 
HETATM   19  C   UNL     1      89.791  30.061  44.439  1.00  0.00     0.011 C 
HETATM   20  C   UNL     1      90.506  30.549  48.534  1.00  0.00     0.314 C 
ENDROOT
TORSDOF 0
ENDMDL
MODEL 3
REMARK VINA RESULT:      -8.4      2.013      5.498
REMARK  0 active torsions:
REMARK  status: ('A' for Active; 'I' for Inactive)
ROOT
HETATM    1  C   UNL     1      89.467  30.034  46.653  1.00  0.00     0.054 C 
HETATM    2  C   UNL     1      90.847  30.677  46.334  1.00  0.00     0.230 C 
HETATM    3  C   UNL     1      91.067  34.892  45.382  1.00  0.00     0.002 C 
HETATM    4  C   UNL     1      89.517  27.434  47.122  1.00  0.00     0.027 C 
HETATM    5  O   UNL     1      88.909  28.335  44.925  1.00  0.00    -0.382 OA
HETATM    6  N   UNL     1      91.022  30.420  44.888  1.00  0.00    -0.043 N 
ATOM      7  HN1 UNL     1      91.513  29.549  44.688  1.00  0.00     0.280 HD
ATOM      8  HN2 UNL     1      91.693  31.047  44.443  1.00  0.00     0.280 HD
HETATM    9  C   UNL     1      91.151  35.051  46.736  1.00  0.00     0.000 C 
HETATM   10  C   UNL     1      88.696  27.264  45.846  1.00  0.00     0.168 C 
HETATM   11  C   UNL     1      88.804  29.703  45.319  1.00  0.00     0.177 C 
HETATM   12  C   UNL     1      90.470  32.147  46.448  1.00  0.00    -0.001 C 
HETATM   13  C   UNL     1      89.615  28.870  47.627  1.00  0.00     0.012 C 
HETATM   14  C   UNL     1      90.409  33.885  44.693  1.00  0.00     0.030 C 
HETATM   15  N   UNL     1      89.124  31.882  44.426  1.00  0.00    -0.360 N 
ATOM     16  HN  UNL     1      88.274  32.199  43.960  1.00  0.00     0.161 HD
HETATM   17  C   UNL     1      90.876  34.176  47.755  1.00  0.00     0.001 C 
HETATM   18  C   UNL     1      89.928  32.713  45.284  1.00  0.00     0.038 C 
HETATM   19  C   UNL     1      90.665  32.805  47.637  1.00  0.00     0.011 C 
HETATM   20  C   UNL     1      89.686  30.484  44.295  1.00  0.00     0.314 C 
ENDROOT
TORSDOF 0
ENDMDL
MODEL 4
REMARK VINA RESULT:      -8.2      1.414      2.753
REMARK  0 active torsions:
REMARK  status: ('A' for Active; 'I' for Inactive)
ROOT
HETATM    1  C   UNL     1      90.791  30.740  47.763  1.00  0.00     0.054 C 
HETATM    2  C   UNL     1      89.398  30.497  47.114  1.00  0.00     0.230 C 
HETATM    3  C   UNL     1      89.037  27.710  43.823  1.00  0.00     0.002 C 
HETATM    4  C   UNL     1      90.834  32.540  49.697  1.00  0.00     0.027 C 
HETATM    5  O   UNL     1      91.490  33.098  47.402  1.00  0.00    -0.382 OA
HETATM    6  N   UNL     1      89.293  31.577  46.109  1.00  0.00    -0.043 N 
ATOM      7  HN1 UNL     1      88.848  32.422  46.468  1.00  0.00     0.280 HD
ATOM      8  HN2 UNL     1      88.614  31.381  45.373  1.00  0.00     0.280 HD
HETATM    9  C   UNL     1      88.891  26.778  44.812  1.00  0.00     0.000 C 
HETATM   10  C   UNL     1      91.712  33.392  48.783  1.00  0.00     0.168 C 
HETATM   11  C   UNL     1      91.520  31.764  46.898  1.00  0.00     0.177 C 
HETATM   12  C   UNL     1      89.707  29.232  46.327  1.00  0.00    -0.001 C 
HETATM   13  C   UNL     1      90.654  31.095  49.240  1.00  0.00     0.012 C 
HETATM   14  C   UNL     1      89.764  28.889  43.880  1.00  0.00     0.030 C 
HETATM   15  N   UNL     1      91.144  30.574  44.875  1.00  0.00    -0.360 N 
ATOM     16  HN  UNL     1      91.997  30.550  44.317  1.00  0.00     0.161 HD
HETATM   17  C   UNL     1      89.162  26.852  46.154  1.00  0.00     0.001 C 
HETATM   18  C   UNL     1      90.270  29.443  45.059  1.00  0.00     0.038 C 
HETATM   19  C   UNL     1      89.436  28.007  46.883  1.00  0.00     0.011 C 
HETATM   20  C   UNL     1      90.648  31.803  45.605  1.00  0.00     0.314 C 
ENDROOT
TORSDOF 0
ENDMDL
MODEL 5
REMARK VINA RESULT:      -7.0      2.027      5.033
REMARK  0 active torsions:
REMARK  status: ('A' for Active; 'I' for Inactive)
ROOT
HETATM    1  C   UNL     1      90.615  30.448  45.604  1.00  0.00     0.054 C 
HETATM    2  C   UNL     1      89.718  31.478  46.349  1.00  0.00     0.230 C 
HETATM    3  C   UNL     1      91.189  33.375  49.949  1.00  0.00     0.002 C 
HETATM    4  C   UNL     1      89.517  29.326  43.479  1.00  0.00     0.027 C 
HETATM    5  O   UNL     1      89.547  28.204  45.658  1.00  0.00    -0.382 OA
HETATM    6  N   UNL     1      88.881  30.634  47.229  1.00  0.00    -0.043 N 
ATOM      7  HN1 UNL     1      88.000  30.352  46.800  1.00  0.00     0.280 HD
ATOM      8  HN2 UNL     1      88.480  31.142  48.017  1.00  0.00     0.280 HD
HETATM    9  C   UNL     1      91.740  34.276  49.081  1.00  0.00     0.000 C 
HETATM   10  C   UNL     1      89.566  28.005  44.243  1.00  0.00     0.168 C 
HETATM   11  C   UNL     1      90.441  29.105  46.307  1.00  0.00     0.177 C 
HETATM   12  C   UNL     1      90.764  32.108  47.257  1.00  0.00    -0.001 C 
HETATM   13  C   UNL     1      90.331  30.454  44.106  1.00  0.00     0.012 C 
HETATM   14  C   UNL     1      90.944  32.030  49.720  1.00  0.00     0.030 C 
HETATM   15  N   UNL     1      90.881  29.989  48.470  1.00  0.00    -0.360 N 
ATOM     16  HN  UNL     1      91.511  29.371  48.981  1.00  0.00     0.161 HD
HETATM   17  C   UNL     1      91.942  34.201  47.727  1.00  0.00     0.001 C 
HETATM   18  C   UNL     1      90.994  31.426  48.461  1.00  0.00     0.038 C 
HETATM   19  C   UNL     1      91.402  33.256  46.859  1.00  0.00     0.011 C 
HETATM   20  C   UNL     1      89.719  29.504  47.632  1.00  0.00     0.314 C 
ENDROOT
TORSDOF 0
ENDMDL
MODEL 6
REMARK VINA RESULT:      -6.6      1.785      5.247
REMARK  0 active torsions:
REMARK  status: ('A' for Active; 'I' for Inactive)
ROOT
HETATM    1  C   UNL     1      90.136  30.156  46.488  1.00  0.00     0.054 C 
HETATM    2  C   UNL     1      89.417  31.415  47.053  1.00  0.00     0.230 C 
HETATM    3  C   UNL     1      91.736  34.937  48.025  1.00  0.00     0.002 C 
HETATM    4  C   UNL     1      88.573  28.074  46.039  1.00  0.00     0.027 C 
HETATM    5  O   UNL     1      89.906  28.266  48.087  1.00  0.00    -0.382 OA
HETATM    6  N   UNL     1      89.351  31.152  48.507  1.00  0.00    -0.043 N 
ATOM      7  HN1 UNL     1      88.495  30.678  48.794  1.00  0.00     0.280 HD
ATOM      8  HN2 UNL     1      89.221  31.996  49.066  1.00  0.00     0.280 HD
HETATM    9  C   UNL     1      91.550  35.252  46.708  1.00  0.00     0.000 C 
HETATM   10  C   UNL     1      89.341  27.353  47.144  1.00  0.00     0.168 C 
HETATM   11  C   UNL     1      90.694  29.383  47.679  1.00  0.00     0.177 C 
HETATM   12  C   UNL     1      90.528  32.439  46.870  1.00  0.00    -0.001 C 
HETATM   13  C   UNL     1      89.218  29.370  45.558  1.00  0.00     0.012 C 
HETATM   14  C   UNL     1      91.814  33.671  48.583  1.00  0.00     0.030 C 
HETATM   15  N   UNL     1      91.786  31.276  48.613  1.00  0.00    -0.360 N 
ATOM     16  HN  UNL     1      92.727  31.026  48.916  1.00  0.00     0.161 HD
HETATM   17  C   UNL     1      91.130  34.478  45.657  1.00  0.00     0.001 C 
HETATM   18  C   UNL     1      91.463  32.494  47.915  1.00  0.00     0.038 C 
HETATM   19  C   UNL     1      90.555  33.212  45.736  1.00  0.00     0.011 C 
HETATM   20  C   UNL     1      90.567  30.412  48.846  1.00  0.00     0.314 C 
ENDROOT
TORSDOF 0
ENDMDL
