MODEL 1
REMARK VINA RESULT:     -10.8      0.000      0.000
REMARK  5 active torsions:
REMARK  status: ('A' for Active; 'I' for Inactive)
REMARK    1  A    between atoms: N_1  and  C_23 
REMARK    2  A    between atoms: C_6  and  C_33 
REMARK    3  A    between atoms: O_14  and  C_29 
REMARK    4  A    between atoms: C_18  and  C_33 
REMARK    5  A    between atoms: O_34  and  C_39 
ROOT
HETATM    1  C   UNL     1      17.098   7.772   1.524  1.00  0.00     0.257 C 
HETATM    2  C   UNL     1      15.433   0.052  -6.150  1.00  0.00     0.020 C 
HETATM    3  N   UNL     1      16.645   1.503  -4.706  1.00  0.00    -0.362 N 
ATOM      4  HN  UNL     1      17.597   1.738  -4.422  1.00  0.00     0.165 HD
HETATM    5  C   UNL     1      14.940   3.866  -0.722  1.00  0.00    -0.006 C 
HETATM    6  C   UNL     1      16.649   3.326  -2.290  1.00  0.00     0.069 C 
HETATM    7  O   UNL     1      17.774   8.670   1.040  1.00  0.00    -0.267 OA
HETATM    8  C   UNL     1      16.514   0.372  -5.387  1.00  0.00     0.088 C 
HETATM    9  C   UNL     1      15.979   8.106   2.395  1.00  0.00     0.033 C 
HETATM   10  C   UNL     1      14.279   5.011  -0.301  1.00  0.00     0.027 C 
HETATM   11  C   UNL     1      14.726   7.889   1.896  1.00  0.00     0.018 C 
HETATM   12  C   UNL     1      16.270   4.005  -1.110  1.00  0.00     0.044 C 
HETATM   13  C   UNL     1      14.715   2.955  -5.190  1.00  0.00     0.089 C 
HETATM   14  C   UNL     1      15.629   2.650  -2.944  1.00  0.00     0.100 C 
HETATM   15  N   UNL     1      17.065   4.818  -0.361  1.00  0.00    -0.341 N 
ATOM     16  HN  UNL     1      18.079   4.713  -0.365  1.00  0.00     0.167 HD
HETATM   17  C   UNL     1      14.391   2.515  -0.928  1.00  0.00     0.216 C 
HETATM   18  N   UNL     1      17.302   6.464   1.227  1.00  0.00    -0.308 N 
ATOM     19  HN  UNL     1      18.102   5.983   1.639  1.00  0.00     0.170 HD
HETATM   20  C   UNL     1      14.305   0.797  -6.349  1.00  0.00     0.040 C 
HETATM   21  C   UNL     1      15.086   6.009   0.269  1.00  0.00     0.009 C 
HETATM   22  O   UNL     1      14.499   2.215  -2.309  1.00  0.00    -0.344 OA
HETATM   23  C   UNL     1      14.063   2.150  -6.169  1.00  0.00     0.094 C 
HETATM   24  C   UNL     1      14.449   7.151   0.766  1.00  0.00     0.016 C 
HETATM   25  C   UNL     1      16.463   5.764   0.384  1.00  0.00     0.118 C 
HETATM   26  C   UNL     1      15.719   2.364  -4.347  1.00  0.00     0.095 C 
ENDROOT
BRANCH  13  27
HETATM   27  N   UNL     1      14.441   4.246  -5.110  1.00  0.00    -0.395 N 
ATOM     28  HN2 UNL     1      14.734   4.887  -5.848  1.00  0.00     0.156 HD
ATOM     29  HN1 UNL     1      13.888   4.603  -4.331  1.00  0.00     0.156 HD
ENDBRANCH  13  27
BRANCH  23  30
HETATM   30  O   UNL     1      13.209   2.785  -6.992  1.00  0.00    -0.358 OA
ATOM     31  HO  UNL     1      13.232   2.524  -7.906  1.00  0.00     0.217 HD
ENDBRANCH  23  30
BRANCH   9  32
HETATM   32  C   UNL     1      16.379   8.670   3.709  1.00  0.00     0.037 C 
BRANCH  32  33
HETATM   33  C   UNL     1      15.392   9.165   4.703  1.00  0.00     0.066 C 
HETATM   34  C   UNL     1      14.391  10.137   4.300  1.00  0.00     0.258 C 
HETATM   35  N   UNL     1      13.469  10.488   5.278  1.00  0.00    -0.333 N 
HETATM   36  O   UNL     1      14.268  10.568   3.146  1.00  0.00    -0.267 OA
HETATM   37  C   UNL     1      13.631  10.181   6.601  1.00  0.00     0.094 C 
ATOM     38  HN  UNL     1      12.632  10.998   4.996  1.00  0.00     0.168 HD
HETATM   39  C   UNL     1      14.676   9.384   7.011  1.00  0.00     0.054 C 
HETATM   40  C   UNL     1      15.410   8.709   6.024  1.00  0.00     0.082 C 
BRANCH  40  41
HETATM   41  O   UNL     1      15.979   7.510   6.318  1.00  0.00    -0.360 OA
ATOM     42  HO  UNL     1      16.780   7.246   5.880  1.00  0.00     0.217 HD
ENDBRANCH  40  41
ENDBRANCH  32  33
ENDBRANCH   9  32
TORSDOF 5
ENDMDL
MODEL 2
REMARK VINA RESULT:     -10.2      2.359     11.209
REMARK  5 active torsions:
REMARK  status: ('A' for Active; 'I' for Inactive)
REMARK    1  A    between atoms: N_1  and  C_23 
REMARK    2  A    between atoms: C_6  and  C_33 
REMARK    3  A    between atoms: O_14  and  C_29 
REMARK    4  A    between atoms: C_18  and  C_33 
REMARK    5  A    between atoms: O_34  and  C_39 
ROOT
HETATM    1  C   UNL     1      13.738   3.340  -5.959  1.00  0.00     0.257 C 
HETATM    2  C   UNL     1      15.032   9.140   3.312  1.00  0.00     0.020 C 
HETATM    3  N   UNL     1      14.246   8.616   1.129  1.00  0.00    -0.362 N 
ATOM      4  HN  UNL     1      13.634   8.968   0.392  1.00  0.00     0.165 HD
HETATM    5  C   UNL     1      14.229   4.191  -1.061  1.00  0.00    -0.006 C 
HETATM    6  C   UNL     1      13.822   6.538  -1.031  1.00  0.00     0.069 C 
HETATM    7  O   UNL     1      14.101   4.025  -6.906  1.00  0.00    -0.267 OA
HETATM    8  C   UNL     1      14.109   9.196   2.314  1.00  0.00     0.088 C 
HETATM    9  C   UNL     1      14.085   1.926  -5.921  1.00  0.00     0.033 C 
HETATM   10  C   UNL     1      15.004   3.309  -1.800  1.00  0.00     0.027 C 
HETATM   11  C   UNL     1      15.014   1.546  -4.994  1.00  0.00     0.018 C 
HETATM   12  C   UNL     1      13.729   5.310  -1.724  1.00  0.00     0.044 C 
HETATM   13  C   UNL     1      16.481   7.588   0.998  1.00  0.00     0.089 C 
HETATM   14  C   UNL     1      14.452   6.481   0.204  1.00  0.00     0.100 C 
HETATM   15  N   UNL     1      13.255   5.135  -2.987  1.00  0.00    -0.341 N 
ATOM     16  HN  UNL     1      12.589   5.790  -3.396  1.00  0.00     0.167 HD
HETATM   17  C   UNL     1      13.946   4.173   0.385  1.00  0.00     0.216 C 
HETATM   18  N   UNL     1      13.078   3.861  -4.894  1.00  0.00    -0.308 N 
ATOM     19  HN  UNL     1      12.094   4.109  -4.996  1.00  0.00     0.170 HD
HETATM   20  C   UNL     1      16.233   8.488   3.299  1.00  0.00     0.040 C 
HETATM   21  C   UNL     1      14.726   3.256  -3.176  1.00  0.00     0.009 C 
HETATM   22  O   UNL     1      14.525   5.337   0.949  1.00  0.00    -0.344 OA
HETATM   23  C   UNL     1      17.008   8.029   2.247  1.00  0.00     0.094 C 
HETATM   24  C   UNL     1      15.440   2.331  -3.944  1.00  0.00     0.016 C 
HETATM   25  C   UNL     1      13.696   4.066  -3.677  1.00  0.00     0.118 C 
HETATM   26  C   UNL     1      15.061   7.649   0.772  1.00  0.00     0.095 C 
ENDROOT
BRANCH  13  27
HETATM   27  N   UNL     1      17.301   7.193   0.038  1.00  0.00    -0.395 N 
ATOM     28  HN2 UNL     1      17.062   7.341  -0.943  1.00  0.00     0.156 HD
ATOM     29  HN1 UNL     1      18.203   6.782   0.276  1.00  0.00     0.156 HD
ENDBRANCH  13  27
BRANCH  23  30
HETATM   30  O   UNL     1      18.350   8.042   2.357  1.00  0.00    -0.358 OA
ATOM     31  HO  UNL     1      18.837   8.175   1.552  1.00  0.00     0.217 HD
ENDBRANCH  23  30
BRANCH   9  32
HETATM   32  C   UNL     1      13.383   1.101  -6.935  1.00  0.00     0.037 C 
BRANCH  32  33
HETATM   33  C   UNL     1      14.037   0.641  -8.188  1.00  0.00     0.066 C 
HETATM   34  C   UNL     1      14.581  -0.704  -8.263  1.00  0.00     0.258 C 
HETATM   35  N   UNL     1      15.110  -1.067  -9.495  1.00  0.00    -0.333 N 
HETATM   36  O   UNL     1      14.504  -1.535  -7.349  1.00  0.00    -0.267 OA
HETATM   37  C   UNL     1      15.372  -0.165 -10.491  1.00  0.00     0.094 C 
ATOM     38  HN  UNL     1      15.313  -2.052  -9.665  1.00  0.00     0.168 HD
HETATM   39  C   UNL     1      14.996   1.152 -10.357  1.00  0.00     0.054 C 
HETATM   40  C   UNL     1      14.136   1.483  -9.299  1.00  0.00     0.082 C 
BRANCH  40  41
HETATM   41  O   UNL     1      13.267   2.518  -9.444  1.00  0.00    -0.360 OA
ATOM     42  HO  UNL     1      13.593   3.410  -9.476  1.00  0.00     0.217 HD
ENDBRANCH  40  41
ENDBRANCH  32  33
ENDBRANCH   9  32
TORSDOF 5
ENDMDL
MODEL 3
REMARK VINA RESULT:     -10.2      2.286     10.752
REMARK  5 active torsions:
REMARK  status: ('A' for Active; 'I' for Inactive)
REMARK    1  A    between atoms: N_1  and  C_23 
REMARK    2  A    between atoms: C_6  and  C_33 
REMARK    3  A    between atoms: O_14  and  C_29 
REMARK    4  A    between atoms: C_18  and  C_33 
REMARK    5  A    between atoms: O_34  and  C_39 
ROOT
HETATM    1  C   UNL     1      15.068   2.829  -6.101  1.00  0.00     0.257 C 
HETATM    2  C   UNL     1      14.705   8.996   3.016  1.00  0.00     0.020 C 
HETATM    3  N   UNL     1      14.288   8.366   0.760  1.00  0.00    -0.362 N 
ATOM      4  HN  UNL     1      13.788   8.669  -0.077  1.00  0.00     0.165 HD
HETATM    5  C   UNL     1      14.756   3.870  -1.225  1.00  0.00    -0.006 C 
HETATM    6  C   UNL     1      14.275   6.199  -1.353  1.00  0.00     0.069 C 
HETATM    7  O   UNL     1      15.553   3.494  -7.007  1.00  0.00    -0.267 OA
HETATM    8  C   UNL     1      13.948   8.982   1.884  1.00  0.00     0.088 C 
HETATM    9  C   UNL     1      15.449   1.432  -5.952  1.00  0.00     0.033 C 
HETATM   10  C   UNL     1      15.665   2.992  -1.797  1.00  0.00     0.027 C 
HETATM   11  C   UNL     1      16.233   1.120  -4.877  1.00  0.00     0.018 C 
HETATM   12  C   UNL     1      14.331   4.944  -2.002  1.00  0.00     0.044 C 
HETATM   13  C   UNL     1      16.548   7.419   1.021  1.00  0.00     0.089 C 
HETATM   14  C   UNL     1      14.705   6.209  -0.034  1.00  0.00     0.100 C 
HETATM   15  N   UNL     1      14.067   4.708  -3.316  1.00  0.00    -0.341 N 
ATOM     16  HN  UNL     1      13.453   5.323  -3.850  1.00  0.00     0.167 HD
HETATM   17  C   UNL     1      14.250   3.891   0.159  1.00  0.00     0.216 C 
HETATM   18  N   UNL     1      14.232   3.362  -5.174  1.00  0.00    -0.308 N 
ATOM     19  HN  UNL     1      13.269   3.569  -5.438  1.00  0.00     0.170 HD
HETATM   20  C   UNL     1      15.913   8.389   3.216  1.00  0.00     0.040 C 
HETATM   21  C   UNL     1      15.608   2.880  -3.197  1.00  0.00     0.009 C 
HETATM   22  O   UNL     1      14.696   5.095   0.759  1.00  0.00    -0.344 OA
HETATM   23  C   UNL     1      16.858   7.923   2.317  1.00  0.00     0.094 C 
HETATM   24  C   UNL     1      16.464   1.956  -3.807  1.00  0.00     0.016 C 
HETATM   25  C   UNL     1      14.645   3.633  -3.884  1.00  0.00     0.118 C 
HETATM   26  C   UNL     1      15.180   7.418   0.574  1.00  0.00     0.095 C 
ENDROOT
BRANCH  13  27
HETATM   27  N   UNL     1      17.520   7.022   0.217  1.00  0.00    -0.395 N 
ATOM     28  HN2 UNL     1      18.497   7.183   0.463  1.00  0.00     0.156 HD
ATOM     29  HN1 UNL     1      17.298   6.503  -0.633  1.00  0.00     0.156 HD
ENDBRANCH  13  27
BRANCH  23  30
HETATM   30  O   UNL     1      18.164   7.991   2.634  1.00  0.00    -0.358 OA
ATOM     31  HO  UNL     1      18.371   8.340   3.493  1.00  0.00     0.217 HD
ENDBRANCH  23  30
BRANCH   9  32
HETATM   32  C   UNL     1      14.941   0.545  -7.029  1.00  0.00     0.037 C 
BRANCH  32  33
HETATM   33  C   UNL     1      13.587   0.697  -7.622  1.00  0.00     0.066 C 
HETATM   34  C   UNL     1      12.421   0.271  -6.868  1.00  0.00     0.258 C 
HETATM   35  N   UNL     1      11.195   0.516  -7.473  1.00  0.00    -0.333 N 
HETATM   36  O   UNL     1      12.467  -0.185  -5.718  1.00  0.00    -0.267 OA
HETATM   37  C   UNL     1      11.069   0.865  -8.790  1.00  0.00     0.094 C 
ATOM     38  HN  UNL     1      10.349   0.430  -6.909  1.00  0.00     0.168 HD
HETATM   39  C   UNL     1      12.184   1.118  -9.555  1.00  0.00     0.054 C 
HETATM   40  C   UNL     1      13.416   1.245  -8.896  1.00  0.00     0.082 C 
BRANCH  40  41
HETATM   41  O   UNL     1      14.372   2.060  -9.416  1.00  0.00    -0.360 OA
ATOM     42  HO  UNL     1      15.109   1.685  -9.885  1.00  0.00     0.217 HD
ENDBRANCH  40  41
ENDBRANCH  32  33
ENDBRANCH   9  32
TORSDOF 5
ENDMDL
MODEL 4
REMARK VINA RESULT:     -10.2      2.991      5.688
REMARK  5 active torsions:
REMARK  status: ('A' for Active; 'I' for Inactive)
REMARK    1  A    between atoms: N_1  and  C_23 
REMARK    2  A    between atoms: C_6  and  C_33 
REMARK    3  A    between atoms: O_14  and  C_29 
REMARK    4  A    between atoms: C_18  and  C_33 
REMARK    5  A    between atoms: O_34  and  C_39 
ROOT
HETATM    1  C   UNL     1      14.265   3.206  -0.777  1.00  0.00     0.257 C 
HETATM    2  C   UNL     1      11.531  -2.087 -10.039  1.00  0.00     0.020 C 
HETATM    3  N   UNL     1      11.726  -1.686  -7.702  1.00  0.00    -0.362 N 
ATOM      4  HN  UNL     1      11.470  -2.083  -6.798  1.00  0.00     0.165 HD
HETATM    5  C   UNL     1      12.673   2.617  -5.476  1.00  0.00    -0.006 C 
HETATM    6  C   UNL     1      12.261   0.271  -5.456  1.00  0.00     0.069 C 
HETATM    7  O   UNL     1      14.980   2.476  -0.103  1.00  0.00    -0.267 OA
HETATM    8  C   UNL     1      11.103  -2.205  -8.752  1.00  0.00     0.088 C 
HETATM    9  C   UNL     1      14.582   4.623  -0.882  1.00  0.00     0.033 C 
HETATM   10  C   UNL     1      13.694   3.468  -5.079  1.00  0.00     0.027 C 
HETATM   11  C   UNL     1      15.049   5.061  -2.089  1.00  0.00     0.018 C 
HETATM   12  C   UNL     1      12.479   1.461  -4.724  1.00  0.00     0.044 C 
HETATM   13  C   UNL     1      13.827  -0.644  -8.456  1.00  0.00     0.089 C 
HETATM   14  C   UNL     1      12.323   0.399  -6.836  1.00  0.00     0.100 C 
HETATM   15  N   UNL     1      12.572   1.564  -3.371  1.00  0.00    -0.341 N 
ATOM     16  HN  UNL     1      12.127   0.882  -2.757  1.00  0.00     0.167 HD
HETATM   17  C   UNL     1      11.816   2.709  -6.671  1.00  0.00     0.216 C 
HETATM   18  N   UNL     1      13.217   2.734  -1.499  1.00  0.00    -0.308 N 
ATOM     19  HN  UNL     1      12.361   2.471  -1.011  1.00  0.00     0.170 HD
HETATM   20  C   UNL     1      12.637  -1.424 -10.491  1.00  0.00     0.040 C 
HETATM   21  C   UNL     1      14.013   3.446  -3.711  1.00  0.00     0.009 C 
HETATM   22  O   UNL     1      12.095   1.582  -7.484  1.00  0.00    -0.344 OA
HETATM   23  C   UNL     1      13.785  -1.012  -9.832  1.00  0.00     0.094 C 
HETATM   24  C   UNL     1      14.993   4.337  -3.261  1.00  0.00     0.016 C 
HETATM   25  C   UNL     1      13.273   2.600  -2.872  1.00  0.00     0.118 C 
HETATM   26  C   UNL     1      12.628  -0.731  -7.666  1.00  0.00     0.095 C 
ENDROOT
BRANCH  13  27
HETATM   27  N   UNL     1      14.976  -0.290  -7.903  1.00  0.00    -0.395 N 
ATOM     28  HN2 UNL     1      15.054   0.581  -7.378  1.00  0.00     0.156 HD
ATOM     29  HN1 UNL     1      15.780  -0.915  -7.956  1.00  0.00     0.156 HD
ENDBRANCH  13  27
BRANCH  23  30
HETATM   30  O   UNL     1      14.959  -1.006 -10.489  1.00  0.00    -0.358 OA
ATOM     31  HO  UNL     1      15.740  -1.109  -9.957  1.00  0.00     0.217 HD
ENDBRANCH  23  30
BRANCH   9  32
HETATM   32  C   UNL     1      14.374   5.387   0.374  1.00  0.00     0.037 C 
BRANCH  32  33
HETATM   33  C   UNL     1      15.359   6.376   0.884  1.00  0.00     0.066 C 
HETATM   34  C   UNL     1      16.778   6.068   0.837  1.00  0.00     0.258 C 
HETATM   35  N   UNL     1      17.624   7.080   1.271  1.00  0.00    -0.333 N 
HETATM   36  O   UNL     1      17.245   5.029   0.353  1.00  0.00    -0.267 OA
HETATM   37  C   UNL     1      17.184   8.178   1.958  1.00  0.00     0.094 C 
ATOM     38  HN  UNL     1      18.621   7.000   1.068  1.00  0.00     0.168 HD
HETATM   39  C   UNL     1      15.838   8.394   2.142  1.00  0.00     0.054 C 
HETATM   40  C   UNL     1      14.942   7.603   1.408  1.00  0.00     0.082 C 
BRANCH  40  41
HETATM   41  O   UNL     1      13.734   8.116   1.051  1.00  0.00    -0.360 OA
ATOM     42  HO  UNL     1      13.124   7.588   0.550  1.00  0.00     0.217 HD
ENDBRANCH  40  41
ENDBRANCH  32  33
ENDBRANCH   9  32
TORSDOF 5
ENDMDL
MODEL 5
REMARK VINA RESULT:     -10.0      2.902      4.902
REMARK  5 active torsions:
REMARK  status: ('A' for Active; 'I' for Inactive)
REMARK    1  A    between atoms: N_1  and  C_23 
REMARK    2  A    between atoms: C_6  and  C_33 
REMARK    3  A    between atoms: O_14  and  C_29 
REMARK    4  A    between atoms: C_18  and  C_33 
REMARK    5  A    between atoms: O_34  and  C_39 
ROOT
HETATM    1  C   UNL     1      14.330   5.565  -1.591  1.00  0.00     0.257 C 
HETATM    2  C   UNL     1      18.209   0.366 -10.490  1.00  0.00     0.020 C 
HETATM    3  N   UNL     1      17.629   2.191  -9.078  1.00  0.00    -0.362 N 
ATOM      4  HN  UNL     1      17.679   3.209  -9.025  1.00  0.00     0.165 HD
HETATM    5  C   UNL     1      16.691   2.044  -4.234  1.00  0.00    -0.006 C 
HETATM    6  C   UNL     1      16.875   3.180  -6.319  1.00  0.00     0.069 C 
HETATM    7  O   UNL     1      13.441   6.331  -1.939  1.00  0.00    -0.267 OA
HETATM    8  C   UNL     1      18.382   1.629 -10.015  1.00  0.00     0.088 C 
HETATM    9  C   UNL     1      14.168   4.783  -0.374  1.00  0.00     0.033 C 
HETATM   10  C   UNL     1      15.696   1.807  -3.297  1.00  0.00     0.027 C 
HETATM   11  C   UNL     1      13.972   3.440  -0.527  1.00  0.00     0.018 C 
HETATM   12  C   UNL     1      16.638   3.251  -4.927  1.00  0.00     0.044 C 
HETATM   13  C   UNL     1      15.805   0.643  -8.489  1.00  0.00     0.089 C 
HETATM   14  C   UNL     1      17.077   1.905  -6.827  1.00  0.00     0.100 C 
HETATM   15  N   UNL     1      16.309   4.369  -4.225  1.00  0.00    -0.341 N 
ATOM     16  HN  UNL     1      16.570   5.297  -4.558  1.00  0.00     0.167 HD
HETATM   17  C   UNL     1      17.755   1.133  -4.691  1.00  0.00     0.216 C 
HETATM   18  N   UNL     1      15.444   5.357  -2.337  1.00  0.00    -0.308 N 
ATOM     19  HN  UNL     1      16.170   6.074  -2.352  1.00  0.00     0.170 HD
HETATM   20  C   UNL     1      17.269  -0.547 -10.102  1.00  0.00     0.040 C 
HETATM   21  C   UNL     1      15.134   2.947  -2.699  1.00  0.00     0.009 C 
HETATM   22  O   UNL     1      17.527   0.863  -6.063  1.00  0.00    -0.344 OA
HETATM   23  C   UNL     1      16.063  -0.387  -9.438  1.00  0.00     0.094 C 
HETATM   24  C   UNL     1      14.174   2.748  -1.701  1.00  0.00     0.016 C 
HETATM   25  C   UNL     1      15.627   4.205  -3.076  1.00  0.00     0.118 C 
HETATM   26  C   UNL     1      16.827   1.617  -8.210  1.00  0.00     0.095 C 
ENDROOT
BRANCH  13  27
HETATM   27  N   UNL     1      14.612   0.737  -7.924  1.00  0.00    -0.395 N 
ATOM     28  HN2 UNL     1      14.253  -0.019  -7.340  1.00  0.00     0.156 HD
ATOM     29  HN1 UNL     1      14.064   1.590  -8.029  1.00  0.00     0.156 HD
ENDBRANCH  13  27
BRANCH  23  30
HETATM   30  O   UNL     1      15.033  -1.204  -9.729  1.00  0.00    -0.358 OA
ATOM     31  HO  UNL     1      14.285  -0.802 -10.155  1.00  0.00     0.217 HD
ENDBRANCH  23  30
BRANCH   9  32
HETATM   32  C   UNL     1      14.214   5.586   0.875  1.00  0.00     0.037 C 
BRANCH  32  33
HETATM   33  C   UNL     1      15.321   6.528   1.183  1.00  0.00     0.066 C 
HETATM   34  C   UNL     1      16.696   6.124   0.945  1.00  0.00     0.258 C 
HETATM   35  N   UNL     1      17.657   7.093   1.197  1.00  0.00    -0.333 N 
HETATM   36  O   UNL     1      17.023   5.037   0.452  1.00  0.00    -0.267 OA
HETATM   37  C   UNL     1      17.392   8.247   1.884  1.00  0.00     0.094 C 
ATOM     38  HN  UNL     1      18.605   6.939   0.855  1.00  0.00     0.168 HD
HETATM   39  C   UNL     1      16.103   8.560   2.253  1.00  0.00     0.054 C 
HETATM   40  C   UNL     1      15.061   7.800   1.700  1.00  0.00     0.082 C 
BRANCH  40  41
HETATM   41  O   UNL     1      13.847   8.378   1.498  1.00  0.00    -0.360 OA
ATOM     42  HO  UNL     1      13.106   7.844   1.235  1.00  0.00     0.217 HD
ENDBRANCH  40  41
ENDBRANCH  32  33
ENDBRANCH   9  32
TORSDOF 5
ENDMDL
MODEL 6
REMARK VINA RESULT:      -9.8      2.387      3.279
REMARK  5 active torsions:
REMARK  status: ('A' for Active; 'I' for Inactive)
REMARK    1  A    between atoms: N_1  and  C_23 
REMARK    2  A    between atoms: C_6  and  C_33 
REMARK    3  A    between atoms: O_14  and  C_29 
REMARK    4  A    between atoms: C_18  and  C_33 
REMARK    5  A    between atoms: O_34  and  C_39 
ROOT
HETATM    1  C   UNL     1      14.006   7.495   0.563  1.00  0.00     0.257 C 
HETATM    2  C   UNL     1      11.515   0.762  -7.788  1.00  0.00     0.020 C 
HETATM    3  N   UNL     1      11.373   2.670  -6.373  1.00  0.00    -0.362 N 
ATOM      4  HN  UNL     1      10.871   3.553  -6.268  1.00  0.00     0.165 HD
HETATM    5  C   UNL     1      14.783   4.298  -3.196  1.00  0.00    -0.006 C 
HETATM    6  C   UNL     1      12.647   4.405  -4.246  1.00  0.00     0.069 C 
HETATM    7  O   UNL     1      13.006   7.657   1.250  1.00  0.00    -0.267 OA
HETATM    8  C   UNL     1      11.241   2.075  -7.551  1.00  0.00     0.088 C 
HETATM    9  C   UNL     1      15.299   7.315   1.208  1.00  0.00     0.033 C 
HETATM   10  C   UNL     1      15.268   4.147  -1.906  1.00  0.00     0.027 C 
HETATM   11  C   UNL     1      15.851   6.068   1.140  1.00  0.00     0.018 C 
HETATM   12  C   UNL     1      13.576   4.978  -3.348  1.00  0.00     0.044 C 
HETATM   13  C   UNL     1      12.021   0.986  -4.696  1.00  0.00     0.089 C 
HETATM   14  C   UNL     1      13.036   3.206  -4.824  1.00  0.00     0.100 C 
HETATM   15  N   UNL     1      13.376   6.086  -2.584  1.00  0.00    -0.341 N 
ATOM     16  HN  UNL     1      12.707   6.805  -2.862  1.00  0.00     0.167 HD
HETATM   17  C   UNL     1      15.316   3.733  -4.449  1.00  0.00     0.216 C 
HETATM   18  N   UNL     1      13.953   7.404  -0.790  1.00  0.00    -0.308 N 
ATOM     19  HN  UNL     1      13.805   8.253  -1.337  1.00  0.00     0.170 HD
HETATM   20  C   UNL     1      11.976  -0.165  -6.896  1.00  0.00     0.040 C 
HETATM   21  C   UNL     1      14.893   5.144  -0.990  1.00  0.00     0.009 C 
HETATM   22  O   UNL     1      14.346   2.836  -4.960  1.00  0.00    -0.344 OA
HETATM   23  C   UNL     1      11.962  -0.182  -5.511  1.00  0.00     0.094 C 
HETATM   24  C   UNL     1      15.416   5.062   0.305  1.00  0.00     0.016 C 
HETATM   25  C   UNL     1      14.092   6.200  -1.450  1.00  0.00     0.118 C 
HETATM   26  C   UNL     1      12.060   2.280  -5.323  1.00  0.00     0.095 C 
ENDROOT
BRANCH  13  27
HETATM   27  N   UNL     1      11.972   0.875  -3.379  1.00  0.00    -0.395 N 
ATOM     28  HN2 UNL     1      11.491   0.089  -2.941  1.00  0.00     0.156 HD
ATOM     29  HN1 UNL     1      12.462   1.551  -2.793  1.00  0.00     0.156 HD
ENDBRANCH  13  27
BRANCH  23  30
HETATM   30  O   UNL     1      11.824  -1.355  -4.864  1.00  0.00    -0.358 OA
ATOM     31  HO  UNL     1      12.381  -2.066  -5.158  1.00  0.00     0.217 HD
ENDBRANCH  23  30
BRANCH   9  32
HETATM   32  C   UNL     1      15.818   8.534   1.880  1.00  0.00     0.037 C 
BRANCH  32  33
HETATM   33  C   UNL     1      15.331   8.985   3.209  1.00  0.00     0.066 C 
HETATM   34  C   UNL     1      14.404  10.101   3.295  1.00  0.00     0.258 C 
HETATM   35  N   UNL     1      13.951  10.406   4.571  1.00  0.00    -0.333 N 
HETATM   36  O   UNL     1      13.943  10.696   2.312  1.00  0.00    -0.267 OA
HETATM   37  C   UNL     1      14.526   9.905   5.707  1.00  0.00     0.094 C 
ATOM     38  HN  UNL     1      13.152  11.033   4.667  1.00  0.00     0.168 HD
HETATM   39  C   UNL     1      15.521   8.957   5.628  1.00  0.00     0.054 C 
HETATM   40  C   UNL     1      15.750   8.352   4.383  1.00  0.00     0.082 C 
BRANCH  40  41
HETATM   41  O   UNL     1      16.207   7.073   4.336  1.00  0.00    -0.360 OA
ATOM     42  HO  UNL     1      15.618   6.352   4.528  1.00  0.00     0.217 HD
ENDBRANCH  40  41
ENDBRANCH  32  33
ENDBRANCH   9  32
TORSDOF 5
ENDMDL
MODEL 7
REMARK VINA RESULT:      -9.3      2.856      5.616
REMARK  5 active torsions:
REMARK  status: ('A' for Active; 'I' for Inactive)
REMARK    1  A    between atoms: N_1  and  C_23 
REMARK    2  A    between atoms: C_6  and  C_33 
REMARK    3  A    between atoms: O_14  and  C_29 
REMARK    4  A    between atoms: C_18  and  C_33 
REMARK    5  A    between atoms: O_34  and  C_39 
ROOT
HETATM    1  C   UNL     1      13.982   3.824  -1.463  1.00  0.00     0.257 C 
HETATM    2  C   UNL     1      14.204  -2.492 -10.481  1.00  0.00     0.020 C 
HETATM    3  N   UNL     1      13.527  -1.745  -8.326  1.00  0.00    -0.362 N 
ATOM      4  HN  UNL     1      12.862  -1.951  -7.580  1.00  0.00     0.165 HD
HETATM    5  C   UNL     1      14.309   2.696  -6.319  1.00  0.00    -0.006 C 
HETATM    6  C   UNL     1      13.486   0.462  -6.256  1.00  0.00     0.069 C 
HETATM    7  O   UNL     1      14.216   3.124  -0.487  1.00  0.00    -0.267 OA
HETATM    8  C   UNL     1      13.287  -2.340  -9.487  1.00  0.00     0.088 C 
HETATM    9  C   UNL     1      14.578   5.149  -1.557  1.00  0.00     0.033 C 
HETATM   10  C   UNL     1      15.230   3.455  -5.612  1.00  0.00     0.027 C 
HETATM   11  C   UNL     1      15.559   5.317  -2.491  1.00  0.00     0.018 C 
HETATM   12  C   UNL     1      13.616   1.715  -5.614  1.00  0.00     0.044 C 
HETATM   13  C   UNL     1      15.911  -1.132  -8.223  1.00  0.00     0.089 C 
HETATM   14  C   UNL     1      14.115   0.354  -7.488  1.00  0.00     0.100 C 
HETATM   15  N   UNL     1      13.181   2.024  -4.362  1.00  0.00    -0.341 N 
ATOM     16  HN  UNL     1      12.408   1.517  -3.932  1.00  0.00     0.167 HD
HETATM   17  C   UNL     1      14.033   2.706  -7.766  1.00  0.00     0.216 C 
HETATM   18  N   UNL     1      13.238   3.386  -2.510  1.00  0.00    -0.308 N 
ATOM     19  HN  UNL     1      12.225   3.324  -2.405  1.00  0.00     0.170 HD
HETATM   20  C   UNL     1      15.503  -2.067 -10.486  1.00  0.00     0.040 C 
HETATM   21  C   UNL     1      14.967   3.614  -4.241  1.00  0.00     0.009 C 
HETATM   22  O   UNL     1      14.392   1.434  -8.279  1.00  0.00    -0.344 OA
HETATM   23  C   UNL     1      16.349  -1.711  -9.448  1.00  0.00     0.094 C 
HETATM   24  C   UNL     1      15.837   4.426  -3.505  1.00  0.00     0.016 C 
HETATM   25  C   UNL     1      13.808   3.023  -3.714  1.00  0.00     0.118 C 
HETATM   26  C   UNL     1      14.503  -0.927  -8.004  1.00  0.00     0.095 C 
ENDROOT
BRANCH  13  27
HETATM   27  N   UNL     1      16.789  -0.851  -7.274  1.00  0.00    -0.395 N 
ATOM     28  HN2 UNL     1      17.478  -1.544  -6.982  1.00  0.00     0.156 HD
ATOM     29  HN1 UNL     1      16.814   0.082  -6.864  1.00  0.00     0.156 HD
ENDBRANCH  13  27
BRANCH  23  30
HETATM   30  O   UNL     1      17.666  -1.971  -9.549  1.00  0.00    -0.358 OA
ATOM     31  HO  UNL     1      17.905  -2.765 -10.013  1.00  0.00     0.217 HD
ENDBRANCH  23  30
BRANCH   9  32
HETATM   32  C   UNL     1      14.036   6.129  -0.581  1.00  0.00     0.037 C 
BRANCH  32  33
HETATM   33  C   UNL     1      14.875   6.762   0.470  1.00  0.00     0.066 C 
HETATM   34  C   UNL     1      14.370   7.915   1.195  1.00  0.00     0.258 C 
HETATM   35  N   UNL     1      15.194   8.394   2.205  1.00  0.00    -0.333 N 
HETATM   36  O   UNL     1      13.244   8.400   1.027  1.00  0.00    -0.267 OA
HETATM   37  C   UNL     1      16.501   8.016   2.345  1.00  0.00     0.094 C 
ATOM     38  HN  UNL     1      14.806   9.059   2.874  1.00  0.00     0.168 HD
HETATM   39  C   UNL     1      17.032   7.027   1.548  1.00  0.00     0.054 C 
HETATM   40  C   UNL     1      16.144   6.263   0.775  1.00  0.00     0.082 C 
BRANCH  40  41
HETATM   41  O   UNL     1      16.452   4.971   0.487  1.00  0.00    -0.360 OA
ATOM     42  HO  UNL     1      16.632   4.359   1.192  1.00  0.00     0.217 HD
ENDBRANCH  40  41
ENDBRANCH  32  33
ENDBRANCH   9  32
TORSDOF 5
ENDMDL
MODEL 8
REMARK VINA RESULT:      -9.0      3.257      6.455
REMARK  5 active torsions:
REMARK  status: ('A' for Active; 'I' for Inactive)
REMARK    1  A    between atoms: N_1  and  C_23 
REMARK    2  A    between atoms: C_6  and  C_33 
REMARK    3  A    between atoms: O_14  and  C_29 
REMARK    4  A    between atoms: C_18  and  C_33 
REMARK    5  A    between atoms: O_34  and  C_39 
ROOT
HETATM    1  C   UNL     1      15.682   2.403  -1.407  1.00  0.00     0.257 C 
HETATM    2  C   UNL     1      10.465  -2.352  -9.859  1.00  0.00     0.020 C 
HETATM    3  N   UNL     1      10.955  -1.798  -7.597  1.00  0.00    -0.362 N 
ATOM      4  HN  UNL     1      10.619  -1.949  -6.646  1.00  0.00     0.165 HD
HETATM    5  C   UNL     1      13.689   1.975  -5.968  1.00  0.00    -0.006 C 
HETATM    6  C   UNL     1      12.373   0.018  -5.635  1.00  0.00     0.069 C 
HETATM    7  O   UNL     1      16.085   1.529  -0.651  1.00  0.00    -0.267 OA
HETATM    8  C   UNL     1      10.110  -2.137  -8.563  1.00  0.00     0.088 C 
HETATM    9  C   UNL     1      16.534   3.547  -1.701  1.00  0.00     0.033 C 
HETATM   10  C   UNL     1      14.989   2.376  -5.699  1.00  0.00     0.027 C 
HETATM   11  C   UNL     1      17.058   3.615  -2.961  1.00  0.00     0.018 C 
HETATM   12  C   UNL     1      13.096   1.092  -5.068  1.00  0.00     0.044 C 
HETATM   13  C   UNL     1      13.244  -1.794  -8.507  1.00  0.00     0.089 C 
HETATM   14  C   UNL     1      12.392  -0.051  -7.021  1.00  0.00     0.100 C 
HETATM   15  N   UNL     1      13.310   1.304  -3.741  1.00  0.00    -0.341 N 
ATOM     16  HN  UNL     1      12.669   0.937  -3.038  1.00  0.00     0.167 HD
HETATM   17  C   UNL     1      12.866   2.268  -7.155  1.00  0.00     0.216 C 
HETATM   18  N   UNL     1      14.489   2.319  -2.047  1.00  0.00    -0.308 N 
ATOM     19  HN  UNL     1      13.632   2.484  -1.519  1.00  0.00     0.170 HD
HETATM   20  C   UNL     1      11.713  -2.253 -10.407  1.00  0.00     0.040 C 
HETATM   21  C   UNL     1      15.359   2.385  -4.344  1.00  0.00     0.009 C 
HETATM   22  O   UNL     1      12.617   1.039  -7.816  1.00  0.00    -0.344 OA
HETATM   23  C   UNL     1      12.969  -2.269  -9.822  1.00  0.00     0.094 C 
HETATM   24  C   UNL     1      16.641   2.847  -4.026  1.00  0.00     0.016 C 
HETATM   25  C   UNL     1      14.398   2.016  -3.391  1.00  0.00     0.118 C 
HETATM   26  C   UNL     1      12.164  -1.294  -7.698  1.00  0.00     0.095 C 
ENDROOT
BRANCH  13  27
HETATM   27  N   UNL     1      14.471  -1.876  -8.019  1.00  0.00    -0.395 N 
ATOM     28  HN2 UNL     1      14.805  -2.743  -7.597  1.00  0.00     0.156 HD
ATOM     29  HN1 UNL     1      15.109  -1.086  -8.109  1.00  0.00     0.156 HD
ENDBRANCH  13  27
BRANCH  23  30
HETATM   30  O   UNL     1      14.002  -2.817 -10.488  1.00  0.00    -0.358 OA
ATOM     31  HO  UNL     1      14.117  -3.755 -10.391  1.00  0.00     0.217 HD
ENDBRANCH  23  30
BRANCH   9  32
HETATM   32  C   UNL     1      16.731   4.469  -0.554  1.00  0.00     0.037 C 
BRANCH  32  33
HETATM   33  C   UNL     1      15.786   5.573  -0.241  1.00  0.00     0.066 C 
HETATM   34  C   UNL     1      16.001   6.390   0.942  1.00  0.00     0.258 C 
HETATM   35  N   UNL     1      15.109   7.439   1.114  1.00  0.00    -0.333 N 
HETATM   36  O   UNL     1      16.963   6.257   1.710  1.00  0.00    -0.267 OA
HETATM   37  C   UNL     1      13.944   7.553   0.406  1.00  0.00     0.094 C 
ATOM     38  HN  UNL     1      15.333   8.160   1.801  1.00  0.00     0.168 HD
HETATM   39  C   UNL     1      13.661   6.679  -0.619  1.00  0.00     0.054 C 
HETATM   40  C   UNL     1      14.693   5.842  -1.068  1.00  0.00     0.082 C 
BRANCH  40  41
HETATM   41  O   UNL     1      14.715   5.449  -2.370  1.00  0.00    -0.360 OA
ATOM     42  HO  UNL     1      14.051   4.853  -2.696  1.00  0.00     0.217 HD
ENDBRANCH  40  41
ENDBRANCH  32  33
ENDBRANCH   9  32
TORSDOF 5
ENDMDL
MODEL 9
REMARK VINA RESULT:      -8.9      2.956      4.787
REMARK  5 active torsions:
REMARK  status: ('A' for Active; 'I' for Inactive)
REMARK    1  A    between atoms: N_1  and  C_23 
REMARK    2  A    between atoms: C_6  and  C_33 
REMARK    3  A    between atoms: O_14  and  C_29 
REMARK    4  A    between atoms: C_18  and  C_33 
REMARK    5  A    between atoms: O_34  and  C_39 
ROOT
HETATM    1  C   UNL     1      16.693   4.562  -0.587  1.00  0.00     0.257 C 
HETATM    2  C   UNL     1      19.244  -1.833  -9.182  1.00  0.00     0.020 C 
HETATM    3  N   UNL     1      19.349  -0.965  -6.970  1.00  0.00    -0.362 N 
ATOM      4  HN  UNL     1      19.821  -1.106  -6.076  1.00  0.00     0.165 HD
HETATM    5  C   UNL     1      15.951   1.782  -4.671  1.00  0.00    -0.006 C 
HETATM    6  C   UNL     1      18.059   0.678  -4.779  1.00  0.00     0.069 C 
HETATM    7  O   UNL     1      17.701   5.153  -0.224  1.00  0.00    -0.267 OA
HETATM    8  C   UNL     1      19.476  -1.952  -7.846  1.00  0.00     0.088 C 
HETATM    9  C   UNL     1      15.422   5.269  -0.631  1.00  0.00     0.033 C 
HETATM   10  C   UNL     1      15.499   3.081  -4.497  1.00  0.00     0.027 C 
HETATM   11  C   UNL     1      14.913   5.543  -1.868  1.00  0.00     0.018 C 
HETATM   12  C   UNL     1      17.129   1.424  -4.020  1.00  0.00     0.044 C 
HETATM   13  C   UNL     1      18.796   1.109  -8.179  1.00  0.00     0.089 C 
HETATM   14  C   UNL     1      17.701   0.442  -6.098  1.00  0.00     0.100 C 
HETATM   15  N   UNL     1      17.306   1.869  -2.746  1.00  0.00    -0.341 N 
ATOM     16  HN  UNL     1      17.943   1.395  -2.106  1.00  0.00     0.167 HD
HETATM   17  C   UNL     1      15.412   0.735  -5.557  1.00  0.00     0.216 C 
HETATM   18  N   UNL     1      16.721   3.277  -1.025  1.00  0.00    -0.308 N 
ATOM     19  HN  UNL     1      16.827   2.526  -0.343  1.00  0.00     0.170 HD
HETATM   20  C   UNL     1      18.836  -0.718  -9.859  1.00  0.00     0.040 C 
HETATM   21  C   UNL     1      15.858   3.697  -3.286  1.00  0.00     0.009 C 
HETATM   22  O   UNL     1      16.402   0.444  -6.528  1.00  0.00    -0.344 OA
HETATM   23  C   UNL     1      18.879   0.623  -9.516  1.00  0.00     0.094 C 
HETATM   24  C   UNL     1      15.365   4.983  -3.044  1.00  0.00     0.016 C 
HETATM   25  C   UNL     1      16.610   2.956  -2.363  1.00  0.00     0.118 C 
HETATM   26  C   UNL     1      18.698   0.170  -7.093  1.00  0.00     0.095 C 
ENDROOT
BRANCH  13  27
HETATM   27  N   UNL     1      18.876   2.408  -7.943  1.00  0.00    -0.395 N 
ATOM     28  HN2 UNL     1      18.192   2.871  -7.344  1.00  0.00     0.156 HD
ATOM     29  HN1 UNL     1      19.657   2.947  -8.317  1.00  0.00     0.156 HD
ENDBRANCH  13  27
BRANCH  23  30
HETATM   30  O   UNL     1      19.072   1.547 -10.476  1.00  0.00    -0.358 OA
ATOM     31  HO  UNL     1      19.931   1.952 -10.505  1.00  0.00     0.217 HD
ENDBRANCH  23  30
BRANCH   9  32
HETATM   32  C   UNL     1      14.874   5.618   0.705  1.00  0.00     0.037 C 
BRANCH  32  33
HETATM   33  C   UNL     1      15.029   6.968   1.307  1.00  0.00     0.066 C 
HETATM   34  C   UNL     1      16.215   7.275   2.087  1.00  0.00     0.258 C 
HETATM   35  N   UNL     1      16.304   8.581   2.551  1.00  0.00    -0.333 N 
HETATM   36  O   UNL     1      17.155   6.488   2.260  1.00  0.00    -0.267 OA
HETATM   37  C   UNL     1      15.249   9.452   2.537  1.00  0.00     0.094 C 
ATOM     38  HN  UNL     1      17.198   8.906   2.920  1.00  0.00     0.168 HD
HETATM   39  C   UNL     1      14.063   9.103   1.934  1.00  0.00     0.054 C 
HETATM   40  C   UNL     1      14.050   7.950   1.135  1.00  0.00     0.082 C 
BRANCH  40  41
HETATM   41  O   UNL     1      13.201   7.881   0.075  1.00  0.00    -0.360 OA
ATOM     42  HO  UNL     1      12.812   7.048  -0.167  1.00  0.00     0.217 HD
ENDBRANCH  40  41
ENDBRANCH  32  33
ENDBRANCH   9  32
TORSDOF 5
ENDMDL
