MODEL 1
REMARK VINA RESULT:     -10.4      0.000      0.000
REMARK  5 active torsions:
REMARK  status: ('A' for Active; 'I' for Inactive)
REMARK    1  A    between atoms: C_2  and  O_22 
REMARK    2  A    between atoms: C_2  and  C_28 
REMARK    3  A    between atoms: C_2  and  C_32 
REMARK    4  A    between atoms: C_6  and  C_21 
REMARK    5  A    between atoms: C_13  and  C_21 
ROOT
HETATM    1  C   UNL     1      14.511   5.869  -0.972  1.00  0.00     0.041 A 
HETATM    2  C   UNL     1      16.822   5.690  -0.305  1.00  0.00     0.025 C 
HETATM    3  C   UNL     1      13.615   3.959   0.064  1.00  0.00     0.013 C 
HETATM    4  C   UNL     1      14.525   3.342  -2.059  1.00  0.00     0.008 C 
HETATM    5  C   UNL     1      15.694   3.983  -1.701  1.00  0.00     0.002 C 
HETATM    6  O   UNL     1      14.847   5.491   1.407  1.00  0.00    -0.366 OA
HETATM    7  C   UNL     1      13.531   3.218  -1.098  1.00  0.00     0.014 C 
HETATM    8  C   UNL     1      15.115   7.304  -0.838  1.00  0.00     0.016 C 
HETATM    9  C   UNL     1      14.490   5.055  -0.017  1.00  0.00     0.096 A 
HETATM   10  C   UNL     1      16.254   7.051   0.147  1.00  0.00     0.019 C 
HETATM   11  C   UNL     1      15.512   6.759   1.445  1.00  0.00     0.160 C 
HETATM   12  C   UNL     1      15.509   5.049  -0.824  1.00  0.00     0.021 A 
ENDROOT
BRANCH  11  13
HETATM   13  C   UNL     1      16.114   7.209   2.777  1.00  0.00     0.181 C 
BRANCH  13  14
HETATM   14  O   UNL     1      17.516   7.379   2.584  1.00  0.00    -0.388 OA
ATOM     15  HO  UNL     1      17.685   7.217   1.663  1.00  0.00     0.210 HD
ENDBRANCH  13  14
BRANCH  13  16
HETATM   16  C   UNL     1      15.561   8.568   3.171  1.00  0.00    -0.018 C 
HETATM   17  C   UNL     1      14.987   9.381   2.203  1.00  0.00     0.027 C 
HETATM   18  C   UNL     1      14.237  10.472   2.605  1.00  0.00     0.089 C 
HETATM   19  N   UNL     1      13.955  10.717   3.886  1.00  0.00    -0.369 N 
HETATM   20  C   UNL     1      14.434   9.859   4.792  1.00  0.00     0.015 C 
ATOM     21  HN  UNL     1      13.397  11.526   4.162  1.00  0.00     0.165 HD
HETATM   22  C   UNL     1      13.731   9.780   6.128  1.00  0.00     0.057 C 
HETATM   23  C   UNL     1      15.497   9.005   4.500  1.00  0.00    -0.027 C 
HETATM   24  C   UNL     1      14.737   9.588   7.249  1.00  0.00     0.006 C 
HETATM   25  C   UNL     1      15.644   8.397   6.961  1.00  0.00     0.005 C 
HETATM   26  C   UNL     1      16.359   8.467   5.619  1.00  0.00     0.041 C 
ENDBRANCH  13  16
ENDBRANCH  11  13
BRANCH   4  27
HETATM   27  C   UNL     1      14.493   2.782  -3.432  1.00  0.00     0.175 C 
HETATM   28  O   UNL     1      15.345   1.932  -3.658  1.00  0.00    -0.291 OA
BRANCH  27  29
HETATM   29  C   UNL     1      13.510   3.093  -4.530  1.00  0.00     0.086 C 
HETATM   30  C   UNL     1      12.478   1.991  -4.668  1.00  0.00     0.143 C 
HETATM   31  C   UNL     1      11.256   2.622  -5.303  1.00  0.00     0.084 C 
HETATM   32  O   UNL     1      12.563   0.881  -4.174  1.00  0.00    -0.297 OA
HETATM   33  C   UNL     1      11.719   4.089  -5.416  1.00  0.00    -0.006 C 
HETATM   34  C   UNL     1      12.760   4.136  -6.529  1.00  0.00     0.007 C 
HETATM   35  C   UNL     1      12.579   4.242  -4.161  1.00  0.00     0.030 C 
HETATM   36  C   UNL     1      13.939   3.339  -5.974  1.00  0.00     0.026 C 
ENDBRANCH  27  29
ENDBRANCH   4  27
TORSDOF 5
ENDMDL
MODEL 2
REMARK VINA RESULT:      -9.9      4.085     10.561
REMARK  5 active torsions:
REMARK  status: ('A' for Active; 'I' for Inactive)
REMARK    1  A    between atoms: C_2  and  O_22 
REMARK    2  A    between atoms: C_2  and  C_28 
REMARK    3  A    between atoms: C_2  and  C_32 
REMARK    4  A    between atoms: C_6  and  C_21 
REMARK    5  A    between atoms: C_13  and  C_21 
ROOT
HETATM    1  C   UNL     1      13.072   4.044  -4.699  1.00  0.00     0.041 A 
HETATM    2  C   UNL     1      12.218   1.789  -4.766  1.00  0.00     0.025 C 
HETATM    3  C   UNL     1      15.385   3.627  -4.666  1.00  0.00     0.013 C 
HETATM    4  C   UNL     1      14.541   3.527  -2.431  1.00  0.00     0.008 C 
HETATM    5  C   UNL     1      13.568   2.656  -2.879  1.00  0.00     0.002 C 
HETATM    6  O   UNL     1      14.089   2.630  -6.397  1.00  0.00    -0.366 OA
HETATM    7  C   UNL     1      15.538   3.901  -3.321  1.00  0.00     0.014 C 
HETATM    8  C   UNL     1      11.723   4.034  -5.487  1.00  0.00     0.016 C 
HETATM    9  C   UNL     1      14.061   3.354  -5.048  1.00  0.00     0.096 A 
HETATM   10  C   UNL     1      11.677   2.586  -5.971  1.00  0.00     0.019 C 
HETATM   11  C   UNL     1      12.795   2.547  -7.005  1.00  0.00     0.160 C 
HETATM   12  C   UNL     1      13.206   2.847  -4.210  1.00  0.00     0.021 A 
ENDROOT
BRANCH  11  13
HETATM   13  C   UNL     1      12.646   1.665  -8.245  1.00  0.00     0.181 C 
BRANCH  13  14
HETATM   14  O   UNL     1      11.940   2.416  -9.229  1.00  0.00    -0.388 OA
ATOM     15  HO  UNL     1      11.032   2.444  -8.950  1.00  0.00     0.210 HD
ENDBRANCH  13  14
BRANCH  13  16
HETATM   16  C   UNL     1      14.011   1.352  -8.835  1.00  0.00    -0.018 C 
HETATM   17  C   UNL     1      14.556   2.201  -9.788  1.00  0.00     0.027 C 
HETATM   18  C   UNL     1      15.898   2.077 -10.104  1.00  0.00     0.089 C 
HETATM   19  N   UNL     1      16.715   1.245  -9.456  1.00  0.00    -0.369 N 
HETATM   20  C   UNL     1      16.185   0.513  -8.471  1.00  0.00     0.015 C 
ATOM     21  HN  UNL     1      17.703   1.170  -9.702  1.00  0.00     0.165 HD
HETATM   22  C   UNL     1      17.119  -0.011  -7.404  1.00  0.00     0.057 C 
HETATM   23  C   UNL     1      14.810   0.297  -8.378  1.00  0.00    -0.027 C 
HETATM   24  C   UNL     1      16.707  -1.409  -6.975  1.00  0.00     0.006 C 
HETATM   25  C   UNL     1      15.237  -1.439  -6.575  1.00  0.00     0.005 C 
HETATM   26  C   UNL     1      14.288  -0.917  -7.644  1.00  0.00     0.041 C 
ENDBRANCH  13  16
ENDBRANCH  11  13
BRANCH   4  27
HETATM   27  C   UNL     1      14.450   3.914  -1.002  1.00  0.00     0.175 C 
HETATM   28  O   UNL     1      13.895   3.092  -0.283  1.00  0.00    -0.291 OA
BRANCH  27  29
HETATM   29  C   UNL     1      15.008   5.149  -0.346  1.00  0.00     0.086 C 
HETATM   30  C   UNL     1      14.395   6.404  -0.936  1.00  0.00     0.143 C 
HETATM   31  C   UNL     1      14.523   7.483   0.121  1.00  0.00     0.084 C 
HETATM   32  O   UNL     1      13.754   6.457  -1.970  1.00  0.00    -0.297 OA
HETATM   33  C   UNL     1      15.172   6.682   1.268  1.00  0.00    -0.006 C 
HETATM   34  C   UNL     1      16.616   6.420   0.857  1.00  0.00     0.007 C 
HETATM   35  C   UNL     1      14.529   5.306   1.092  1.00  0.00     0.030 C 
HETATM   36  C   UNL     1      16.500   5.473  -0.336  1.00  0.00     0.026 C 
ENDBRANCH  27  29
ENDBRANCH   4  27
TORSDOF 5
ENDMDL
MODEL 3
REMARK VINA RESULT:      -9.9      5.524     10.179
REMARK  5 active torsions:
REMARK  status: ('A' for Active; 'I' for Inactive)
REMARK    1  A    between atoms: C_2  and  O_22 
REMARK    2  A    between atoms: C_2  and  C_28 
REMARK    3  A    between atoms: C_2  and  C_32 
REMARK    4  A    between atoms: C_6  and  C_21 
REMARK    5  A    between atoms: C_13  and  C_21 
ROOT
HETATM    1  C   UNL     1      15.918   0.828  -6.114  1.00  0.00     0.041 A 
HETATM    2  C   UNL     1      17.993   0.340  -4.985  1.00  0.00     0.025 C 
HETATM    3  C   UNL     1      16.202   3.118  -6.564  1.00  0.00     0.013 C 
HETATM    4  C   UNL     1      15.325   2.859  -4.356  1.00  0.00     0.008 C 
HETATM    5  C   UNL     1      16.334   1.953  -4.102  1.00  0.00     0.002 C 
HETATM    6  O   UNL     1      17.906   1.614  -7.274  1.00  0.00    -0.366 OA
HETATM    7  C   UNL     1      15.354   3.545  -5.562  1.00  0.00     0.014 C 
HETATM    8  C   UNL     1      16.321  -0.652  -6.409  1.00  0.00     0.016 C 
HETATM    9  C   UNL     1      16.659   1.799  -6.405  1.00  0.00     0.096 A 
HETATM   10  C   UNL     1      17.833  -0.590  -6.207  1.00  0.00     0.019 C 
HETATM   11  C   UNL     1      18.293   0.240  -7.398  1.00  0.00     0.160 C 
HETATM   12  C   UNL     1      16.767   1.258  -5.228  1.00  0.00     0.021 A 
ENDROOT
BRANCH  11  13
HETATM   13  C   UNL     1      19.639  -0.064  -8.057  1.00  0.00     0.181 C 
BRANCH  13  14
HETATM   14  O   UNL     1      19.447  -0.035  -9.469  1.00  0.00    -0.388 OA
ATOM     15  HO  UNL     1      19.892  -0.799  -9.819  1.00  0.00     0.210 HD
ENDBRANCH  13  14
BRANCH  13  16
HETATM   16  C   UNL     1      20.643   1.029  -7.732  1.00  0.00    -0.018 C 
HETATM   17  C   UNL     1      20.789   2.103  -8.599  1.00  0.00     0.027 C 
HETATM   18  C   UNL     1      21.479   3.223  -8.165  1.00  0.00     0.089 C 
HETATM   19  N   UNL     1      21.920   3.355  -6.913  1.00  0.00    -0.369 N 
HETATM   20  C   UNL     1      21.673   2.347  -6.069  1.00  0.00     0.015 C 
ATOM     21  HN  UNL     1      22.424   4.189  -6.612  1.00  0.00     0.165 HD
HETATM   22  C   UNL     1      21.664   2.656  -4.590  1.00  0.00     0.057 C 
HETATM   23  C   UNL     1      21.358   1.069  -6.529  1.00  0.00    -0.027 C 
HETATM   24  C   UNL     1      22.281   1.511  -3.803  1.00  0.00     0.006 C 
HETATM   25  C   UNL     1      21.612   0.190  -4.160  1.00  0.00     0.005 C 
HETATM   26  C   UNL     1      21.617  -0.132  -5.648  1.00  0.00     0.041 C 
ENDBRANCH  13  16
ENDBRANCH  11  13
BRANCH   4  27
HETATM   27  C   UNL     1      14.345   3.055  -3.258  1.00  0.00     0.175 C 
HETATM   28  O   UNL     1      13.576   2.118  -3.085  1.00  0.00    -0.291 OA
BRANCH  27  29
HETATM   29  C   UNL     1      14.240   4.227  -2.318  1.00  0.00     0.086 C 
HETATM   30  C   UNL     1      14.413   3.788  -0.877  1.00  0.00     0.143 C 
HETATM   31  C   UNL     1      14.891   5.005  -0.111  1.00  0.00     0.084 C 
HETATM   32  O   UNL     1      14.369   2.637  -0.481  1.00  0.00    -0.297 OA
HETATM   33  C   UNL     1      14.995   6.037  -1.253  1.00  0.00    -0.006 C 
HETATM   34  C   UNL     1      13.568   6.404  -1.644  1.00  0.00     0.007 C 
HETATM   35  C   UNL     1      15.438   5.162  -2.426  1.00  0.00     0.030 C 
HETATM   36  C   UNL     1      13.005   5.122  -2.254  1.00  0.00     0.026 C 
ENDBRANCH  27  29
ENDBRANCH   4  27
TORSDOF 5
ENDMDL
MODEL 4
REMARK VINA RESULT:      -9.6      3.670     10.394
REMARK  5 active torsions:
REMARK  status: ('A' for Active; 'I' for Inactive)
REMARK    1  A    between atoms: C_2  and  O_22 
REMARK    2  A    between atoms: C_2  and  C_28 
REMARK    3  A    between atoms: C_2  and  C_32 
REMARK    4  A    between atoms: C_6  and  C_21 
REMARK    5  A    between atoms: C_13  and  C_21 
ROOT
HETATM    1  C   UNL     1      14.417   3.797  -3.447  1.00  0.00     0.041 A 
HETATM    2  C   UNL     1      12.205   4.044  -4.378  1.00  0.00     0.025 C 
HETATM    3  C   UNL     1      13.892   3.031  -1.287  1.00  0.00     0.013 C 
HETATM    4  C   UNL     1      13.807   5.420  -1.311  1.00  0.00     0.008 C 
HETATM    5  C   UNL     1      12.987   5.342  -2.419  1.00  0.00     0.002 C 
HETATM    6  O   UNL     1      12.975   1.861  -3.148  1.00  0.00    -0.366 OA
HETATM    7  C   UNL     1      14.143   4.238  -0.666  1.00  0.00     0.014 C 
HETATM    8  C   UNL     1      14.479   3.524  -4.984  1.00  0.00     0.016 C 
HETATM    9  C   UNL     1      13.685   3.132  -2.673  1.00  0.00     0.096 A 
HETATM   10  C   UNL     1      13.040   3.095  -5.263  1.00  0.00     0.019 C 
HETATM   11  C   UNL     1      12.959   1.738  -4.575  1.00  0.00     0.160 C 
HETATM   12  C   UNL     1      13.210   4.217  -3.209  1.00  0.00     0.021 A 
ENDROOT
BRANCH  11  13
HETATM   13  C   UNL     1      12.099   0.631  -5.185  1.00  0.00     0.181 C 
BRANCH  13  14
HETATM   14  O   UNL     1      10.735   1.025  -5.063  1.00  0.00    -0.388 OA
ATOM     15  HO  UNL     1      10.624   1.352  -4.177  1.00  0.00     0.210 HD
ENDBRANCH  13  14
BRANCH  13  16
HETATM   16  C   UNL     1      12.384   0.504  -6.672  1.00  0.00    -0.018 C 
HETATM   17  C   UNL     1      11.448   0.961  -7.589  1.00  0.00     0.027 C 
HETATM   18  C   UNL     1      11.826   1.108  -8.913  1.00  0.00     0.089 C 
HETATM   19  N   UNL     1      13.082   0.927  -9.325  1.00  0.00    -0.369 N 
HETATM   20  C   UNL     1      13.986   0.588  -8.400  1.00  0.00     0.015 C 
ATOM     21  HN  UNL     1      13.342   1.044 -10.305  1.00  0.00     0.165 HD
HETATM   22  C   UNL     1      15.438   0.889  -8.692  1.00  0.00     0.057 C 
HETATM   23  C   UNL     1      13.608   0.044  -7.173  1.00  0.00    -0.027 C 
HETATM   24  C   UNL     1      16.329  -0.227  -8.173  1.00  0.00     0.006 C 
HETATM   25  C   UNL     1      16.042  -0.505  -6.703  1.00  0.00     0.005 C 
HETATM   26  C   UNL     1      14.582  -0.812  -6.398  1.00  0.00     0.041 C 
ENDBRANCH  13  16
ENDBRANCH  11  13
BRANCH   4  27
HETATM   27  C   UNL     1      14.182   6.791  -0.884  1.00  0.00     0.175 C 
HETATM   28  O   UNL     1      13.600   7.690  -1.478  1.00  0.00    -0.291 OA
BRANCH  27  29
HETATM   29  C   UNL     1      15.132   7.183   0.217  1.00  0.00     0.086 C 
HETATM   30  C   UNL     1      14.440   8.047   1.253  1.00  0.00     0.143 C 
HETATM   31  C   UNL     1      15.220   7.884   2.541  1.00  0.00     0.084 C 
HETATM   32  O   UNL     1      13.359   8.591   1.108  1.00  0.00    -0.297 OA
HETATM   33  C   UNL     1      16.286   6.860   2.101  1.00  0.00    -0.006 C 
HETATM   34  C   UNL     1      17.258   7.603   1.191  1.00  0.00     0.007 C 
HETATM   35  C   UNL     1      15.503   6.002   1.106  1.00  0.00     0.030 C 
HETATM   36  C   UNL     1      16.429   7.943  -0.046  1.00  0.00     0.026 C 
ENDBRANCH  27  29
ENDBRANCH   4  27
TORSDOF 5
ENDMDL
MODEL 5
REMARK VINA RESULT:      -9.5      4.388     10.926
REMARK  5 active torsions:
REMARK  status: ('A' for Active; 'I' for Inactive)
REMARK    1  A    between atoms: C_2  and  O_22 
REMARK    2  A    between atoms: C_2  and  C_28 
REMARK    3  A    between atoms: C_2  and  C_32 
REMARK    4  A    between atoms: C_6  and  C_21 
REMARK    5  A    between atoms: C_13  and  C_21 
ROOT
HETATM    1  C   UNL     1      15.301   2.156  -4.346  1.00  0.00     0.041 A 
HETATM    2  C   UNL     1      17.111   3.460  -5.262  1.00  0.00     0.025 C 
HETATM    3  C   UNL     1      13.536   3.701  -4.501  1.00  0.00     0.013 C 
HETATM    4  C   UNL     1      14.733   4.082  -2.466  1.00  0.00     0.008 C 
HETATM    5  C   UNL     1      15.899   4.110  -3.202  1.00  0.00     0.002 C 
HETATM    6  O   UNL     1      14.794   3.233  -6.467  1.00  0.00    -0.366 OA
HETATM    7  C   UNL     1      13.530   4.012  -3.155  1.00  0.00     0.014 C 
HETATM    8  C   UNL     1      16.306   1.198  -5.063  1.00  0.00     0.016 C 
HETATM    9  C   UNL     1      14.725   3.098  -4.944  1.00  0.00     0.096 A 
HETATM   10  C   UNL     1      16.956   2.151  -6.064  1.00  0.00     0.019 C 
HETATM   11  C   UNL     1      15.823   2.422  -7.047  1.00  0.00     0.160 C 
HETATM   12  C   UNL     1      15.861   3.329  -4.354  1.00  0.00     0.021 A 
ENDROOT
BRANCH  11  13
HETATM   13  C   UNL     1      16.141   2.625  -8.528  1.00  0.00     0.181 C 
BRANCH  13  14
HETATM   14  O   UNL     1      17.556   2.549  -8.683  1.00  0.00    -0.388 OA
ATOM     15  HO  UNL     1      17.752   2.877  -9.553  1.00  0.00     0.210 HD
ENDBRANCH  13  14
BRANCH  13  16
HETATM   16  C   UNL     1      15.552   1.492  -9.353  1.00  0.00    -0.018 C 
HETATM   17  C   UNL     1      16.391   0.518  -9.875  1.00  0.00     0.027 C 
HETATM   18  C   UNL     1      15.834  -0.649 -10.369  1.00  0.00     0.089 C 
HETATM   19  N   UNL     1      14.532  -0.921 -10.270  1.00  0.00    -0.369 N 
HETATM   20  C   UNL     1      13.760  -0.009  -9.668  1.00  0.00     0.015 C 
ATOM     21  HN  UNL     1      14.140  -1.789 -10.638  1.00  0.00     0.165 HD
HETATM   22  C   UNL     1      12.453  -0.477  -9.073  1.00  0.00     0.057 C 
HETATM   23  C   UNL     1      14.173   1.315  -9.521  1.00  0.00    -0.027 C 
HETATM   24  C   UNL     1      11.370   0.568  -9.279  1.00  0.00     0.006 C 
HETATM   25  C   UNL     1      11.828   1.928  -8.765  1.00  0.00     0.005 C 
HETATM   26  C   UNL     1      13.144   2.410  -9.361  1.00  0.00     0.041 C 
ENDBRANCH  13  16
ENDBRANCH  11  13
BRANCH   4  27
HETATM   27  C   UNL     1      14.896   4.205  -0.996  1.00  0.00     0.175 C 
HETATM   28  O   UNL     1      14.915   3.140  -0.392  1.00  0.00    -0.291 OA
BRANCH  27  29
HETATM   29  C   UNL     1      15.098   5.465  -0.197  1.00  0.00     0.086 C 
HETATM   30  C   UNL     1      16.567   5.693   0.100  1.00  0.00     0.143 C 
HETATM   31  C   UNL     1      16.734   7.180   0.335  1.00  0.00     0.084 C 
HETATM   32  O   UNL     1      17.450   4.864  -0.031  1.00  0.00    -0.297 OA
HETATM   33  C   UNL     1      15.293   7.671   0.084  1.00  0.00    -0.006 C 
HETATM   34  C   UNL     1      14.461   7.216   1.277  1.00  0.00     0.007 C 
HETATM   35  C   UNL     1      14.827   6.720  -1.018  1.00  0.00     0.030 C 
HETATM   36  C   UNL     1      14.439   5.694   1.161  1.00  0.00     0.026 C 
ENDBRANCH  27  29
ENDBRANCH   4  27
TORSDOF 5
ENDMDL
MODEL 6
REMARK VINA RESULT:      -9.5      4.166     10.518
REMARK  5 active torsions:
REMARK  status: ('A' for Active; 'I' for Inactive)
REMARK    1  A    between atoms: C_2  and  O_22 
REMARK    2  A    between atoms: C_2  and  C_28 
REMARK    3  A    between atoms: C_2  and  C_32 
REMARK    4  A    between atoms: C_6  and  C_21 
REMARK    5  A    between atoms: C_13  and  C_21 
ROOT
HETATM    1  C   UNL     1      16.324   3.293  -4.127  1.00  0.00     0.041 A 
HETATM    2  C   UNL     1      14.417   2.322  -5.240  1.00  0.00     0.025 C 
HETATM    3  C   UNL     1      16.869   1.568  -2.625  1.00  0.00     0.013 C 
HETATM    4  C   UNL     1      15.178   2.949  -1.650  1.00  0.00     0.008 C 
HETATM    5  C   UNL     1      14.447   2.808  -2.812  1.00  0.00     0.002 C 
HETATM    6  O   UNL     1      16.675   1.025  -4.935  1.00  0.00    -0.366 OA
HETATM    7  C   UNL     1      16.339   2.201  -1.517  1.00  0.00     0.014 C 
HETATM    8  C   UNL     1      16.272   3.818  -5.597  1.00  0.00     0.016 C 
HETATM    9  C   UNL     1      16.399   2.070  -3.850  1.00  0.00     0.096 A 
HETATM   10  C   UNL     1      15.493   2.696  -6.281  1.00  0.00     0.019 C 
HETATM   11  C   UNL     1      16.485   1.541  -6.258  1.00  0.00     0.160 C 
HETATM   12  C   UNL     1      15.226   2.620  -3.951  1.00  0.00     0.021 A 
ENDROOT
BRANCH  11  13
HETATM   13  C   UNL     1      16.517   0.549  -7.420  1.00  0.00     0.181 C 
BRANCH  13  14
HETATM   14  O   UNL     1      17.202  -0.619  -6.975  1.00  0.00    -0.388 OA
ATOM     15  HO  UNL     1      17.778  -0.345  -6.271  1.00  0.00     0.210 HD
ENDBRANCH  13  14
BRANCH  13  16
HETATM   16  C   UNL     1      15.106   0.114  -7.779  1.00  0.00    -0.018 C 
HETATM   17  C   UNL     1      14.481  -0.872  -7.028  1.00  0.00     0.027 C 
HETATM   18  C   UNL     1      13.117  -1.057  -7.171  1.00  0.00     0.089 C 
HETATM   19  N   UNL     1      12.358  -0.259  -7.923  1.00  0.00    -0.369 N 
HETATM   20  C   UNL     1      12.970   0.749  -8.555  1.00  0.00     0.015 C 
ATOM     21  HN  UNL     1      11.353  -0.410  -8.013  1.00  0.00     0.165 HD
HETATM   22  C   UNL     1      12.132   1.941  -8.955  1.00  0.00     0.057 C 
HETATM   23  C   UNL     1      14.348   0.745  -8.774  1.00  0.00    -0.027 C 
HETATM   24  C   UNL     1      12.578   2.475 -10.306  1.00  0.00     0.006 C 
HETATM   25  C   UNL     1      14.077   2.749 -10.309  1.00  0.00     0.005 C 
HETATM   26  C   UNL     1      14.931   1.554  -9.910  1.00  0.00     0.041 C 
ENDBRANCH  13  16
ENDBRANCH  11  13
BRANCH   4  27
HETATM   27  C   UNL     1      14.589   3.845  -0.624  1.00  0.00     0.175 C 
HETATM   28  O   UNL     1      13.595   3.400  -0.065  1.00  0.00    -0.291 OA
BRANCH  27  29
HETATM   29  C   UNL     1      15.108   5.182  -0.164  1.00  0.00     0.086 C 
HETATM   30  C   UNL     1      14.630   6.296  -1.075  1.00  0.00     0.143 C 
HETATM   31  C   UNL     1      14.662   7.568  -0.254  1.00  0.00     0.084 C 
HETATM   32  O   UNL     1      14.132   6.140  -2.176  1.00  0.00    -0.297 OA
HETATM   33  C   UNL     1      15.122   7.015   1.111  1.00  0.00    -0.006 C 
HETATM   34  C   UNL     1      16.595   6.653   0.962  1.00  0.00     0.007 C 
HETATM   35  C   UNL     1      14.452   5.641   1.133  1.00  0.00     0.030 C 
HETATM   36  C   UNL     1      16.597   5.481  -0.017  1.00  0.00     0.026 C 
ENDBRANCH  27  29
ENDBRANCH   4  27
TORSDOF 5
ENDMDL
MODEL 7
REMARK VINA RESULT:      -9.5      1.541      2.449
REMARK  5 active torsions:
REMARK  status: ('A' for Active; 'I' for Inactive)
REMARK    1  A    between atoms: C_2  and  O_22 
REMARK    2  A    between atoms: C_2  and  C_28 
REMARK    3  A    between atoms: C_2  and  C_32 
REMARK    4  A    between atoms: C_6  and  C_21 
REMARK    5  A    between atoms: C_13  and  C_21 
ROOT
HETATM    1  C   UNL     1      14.354   5.914  -0.936  1.00  0.00     0.041 A 
HETATM    2  C   UNL     1      16.715   6.040  -0.463  1.00  0.00     0.025 C 
HETATM    3  C   UNL     1      13.837   3.823   0.006  1.00  0.00     0.013 C 
HETATM    4  C   UNL     1      14.640   3.499  -2.223  1.00  0.00     0.008 C 
HETATM    5  C   UNL     1      15.729   4.283  -1.903  1.00  0.00     0.002 C 
HETATM    6  O   UNL     1      14.946   5.427   1.372  1.00  0.00    -0.366 OA
HETATM    7  C   UNL     1      13.761   3.160  -1.204  1.00  0.00     0.014 C 
HETATM    8  C   UNL     1      14.752   7.411  -0.732  1.00  0.00     0.016 C 
HETATM    9  C   UNL     1      14.534   5.042  -0.051  1.00  0.00     0.096 A 
HETATM   10  C   UNL     1      15.997   7.266   0.140  1.00  0.00     0.019 C 
HETATM   11  C   UNL     1      15.421   6.775   1.463  1.00  0.00     0.160 C 
HETATM   12  C   UNL     1      15.468   5.246  -0.932  1.00  0.00     0.021 A 
ENDROOT
BRANCH  11  13
HETATM   13  C   UNL     1      16.064   7.218   2.777  1.00  0.00     0.181 C 
BRANCH  13  14
HETATM   14  O   UNL     1      17.461   7.380   2.544  1.00  0.00    -0.388 OA
ATOM     15  HO  UNL     1      17.840   7.682   3.361  1.00  0.00     0.210 HD
ENDBRANCH  13  14
BRANCH  13  16
HETATM   16  C   UNL     1      15.531   8.579   3.192  1.00  0.00    -0.018 C 
HETATM   17  C   UNL     1      14.959   9.409   2.238  1.00  0.00     0.027 C 
HETATM   18  C   UNL     1      14.225  10.505   2.660  1.00  0.00     0.089 C 
HETATM   19  N   UNL     1      13.957  10.738   3.945  1.00  0.00    -0.369 N 
HETATM   20  C   UNL     1      14.433   9.863   4.838  1.00  0.00     0.015 C 
ATOM     21  HN  UNL     1      13.411  11.550   4.236  1.00  0.00     0.165 HD
HETATM   22  C   UNL     1      13.740   9.778   6.178  1.00  0.00     0.057 C 
HETATM   23  C   UNL     1      15.484   9.000   4.527  1.00  0.00    -0.027 C 
HETATM   24  C   UNL     1      14.754   9.560   7.288  1.00  0.00     0.006 C 
HETATM   25  C   UNL     1      15.643   8.362   6.979  1.00  0.00     0.005 C 
HETATM   26  C   UNL     1      16.348   8.439   5.632  1.00  0.00     0.041 C 
ENDBRANCH  13  16
ENDBRANCH  11  13
BRANCH   4  27
HETATM   27  C   UNL     1      14.570   3.037  -3.631  1.00  0.00     0.175 C 
HETATM   28  O   UNL     1      13.576   3.408  -4.243  1.00  0.00    -0.291 OA
BRANCH  27  29
HETATM   29  C   UNL     1      15.596   2.234  -4.387  1.00  0.00     0.086 C 
HETATM   30  C   UNL     1      16.560   3.139  -5.128  1.00  0.00     0.143 C 
HETATM   31  C   UNL     1      17.833   2.343  -5.327  1.00  0.00     0.084 C 
HETATM   32  O   UNL     1      16.395   4.329  -5.331  1.00  0.00    -0.297 OA
HETATM   33  C   UNL     1      17.466   1.033  -4.600  1.00  0.00    -0.006 C 
HETATM   34  C   UNL     1      16.456   0.310  -5.485  1.00  0.00     0.007 C 
HETATM   35  C   UNL     1      16.588   1.545  -3.458  1.00  0.00     0.030 C 
HETATM   36  C   UNL     1      15.217   1.203  -5.446  1.00  0.00     0.026 C 
ENDBRANCH  27  29
ENDBRANCH   4  27
TORSDOF 5
ENDMDL
MODEL 8
REMARK VINA RESULT:      -9.4      5.601     10.448
REMARK  5 active torsions:
REMARK  status: ('A' for Active; 'I' for Inactive)
REMARK    1  A    between atoms: C_2  and  O_22 
REMARK    2  A    between atoms: C_2  and  C_28 
REMARK    3  A    between atoms: C_2  and  C_32 
REMARK    4  A    between atoms: C_6  and  C_21 
REMARK    5  A    between atoms: C_13  and  C_21 
ROOT
HETATM    1  C   UNL     1      16.999   2.899  -4.173  1.00  0.00     0.041 A 
HETATM    2  C   UNL     1      15.629   1.099  -5.010  1.00  0.00     0.025 C 
HETATM    3  C   UNL     1      18.069   1.826  -2.375  1.00  0.00     0.013 C 
HETATM    4  C   UNL     1      15.949   2.654  -1.642  1.00  0.00     0.008 C 
HETATM    5  C   UNL     1      15.372   2.030  -2.729  1.00  0.00     0.002 C 
HETATM    6  O   UNL     1      18.188   0.807  -4.524  1.00  0.00    -0.366 OA
HETATM    7  C   UNL     1      17.296   2.425  -1.399  1.00  0.00     0.014 C 
HETATM    8  C   UNL     1      16.824   3.069  -5.716  1.00  0.00     0.016 C 
HETATM    9  C   UNL     1      17.503   1.870  -3.660  1.00  0.00     0.096 A 
HETATM   10  C   UNL     1      16.539   1.629  -6.138  1.00  0.00     0.019 C 
HETATM   11  C   UNL     1      17.883   0.946  -5.916  1.00  0.00     0.160 C 
HETATM   12  C   UNL     1      16.215   1.920  -3.831  1.00  0.00     0.021 A 
ENDROOT
BRANCH  11  13
HETATM   13  C   UNL     1      18.325  -0.174  -6.858  1.00  0.00     0.181 C 
BRANCH  13  14
HETATM   14  O   UNL     1      17.498  -0.118  -8.018  1.00  0.00    -0.388 OA
ATOM     15  HO  UNL     1      17.695   0.704  -8.452  1.00  0.00     0.210 HD
ENDBRANCH  13  14
BRANCH  13  16
HETATM   16  C   UNL     1      19.750   0.068  -7.329  1.00  0.00    -0.018 C 
HETATM   17  C   UNL     1      19.971   0.725  -8.531  1.00  0.00     0.027 C 
HETATM   18  C   UNL     1      21.244   1.194  -8.811  1.00  0.00     0.089 C 
HETATM   19  N   UNL     1      22.243   1.132  -7.930  1.00  0.00    -0.369 N 
HETATM   20  C   UNL     1      21.974   0.586  -6.739  1.00  0.00     0.015 C 
ATOM     21  HN  UNL     1      23.173   1.486  -8.155  1.00  0.00     0.165 HD
HETATM   22  C   UNL     1      22.862   0.964  -5.576  1.00  0.00     0.057 C 
HETATM   23  C   UNL     1      20.869  -0.244  -6.547  1.00  0.00    -0.027 C 
HETATM   24  C   UNL     1      23.098  -0.236  -4.675  1.00  0.00     0.006 C 
HETATM   25  C   UNL     1      21.776  -0.867  -4.258  1.00  0.00     0.005 C 
HETATM   26  C   UNL     1      20.874  -1.254  -5.423  1.00  0.00     0.041 C 
ENDBRANCH  13  16
ENDBRANCH  11  13
BRANCH   4  27
HETATM   27  C   UNL     1      15.029   3.455  -0.797  1.00  0.00     0.175 C 
HETATM   28  O   UNL     1      14.056   2.843  -0.377  1.00  0.00    -0.291 OA
BRANCH  27  29
HETATM   29  C   UNL     1      15.195   4.887  -0.360  1.00  0.00     0.086 C 
HETATM   30  C   UNL     1      14.585   5.840  -1.370  1.00  0.00     0.143 C 
HETATM   31  C   UNL     1      14.254   7.112  -0.618  1.00  0.00     0.084 C 
HETATM   32  O   UNL     1      14.252   5.545  -2.504  1.00  0.00    -0.297 OA
HETATM   33  C   UNL     1      14.676   6.716   0.812  1.00  0.00    -0.006 C 
HETATM   34  C   UNL     1      16.200   6.684   0.826  1.00  0.00     0.007 C 
HETATM   35  C   UNL     1      14.321   5.229   0.841  1.00  0.00     0.030 C 
HETATM   36  C   UNL     1      16.560   5.512  -0.086  1.00  0.00     0.026 C 
ENDBRANCH  27  29
ENDBRANCH   4  27
TORSDOF 5
ENDMDL
MODEL 9
REMARK VINA RESULT:      -9.3      4.544     10.677
REMARK  5 active torsions:
REMARK  status: ('A' for Active; 'I' for Inactive)
REMARK    1  A    between atoms: C_2  and  O_22 
REMARK    2  A    between atoms: C_2  and  C_28 
REMARK    3  A    between atoms: C_2  and  C_32 
REMARK    4  A    between atoms: C_6  and  C_21 
REMARK    5  A    between atoms: C_13  and  C_21 
ROOT
HETATM    1  C   UNL     1      14.975   2.206  -3.956  1.00  0.00     0.041 A 
HETATM    2  C   UNL     1      16.868   3.354  -4.913  1.00  0.00     0.025 C 
HETATM    3  C   UNL     1      13.308   3.846  -4.201  1.00  0.00     0.013 C 
HETATM    4  C   UNL     1      14.511   4.250  -2.174  1.00  0.00     0.008 C 
HETATM    5  C   UNL     1      15.682   4.173  -2.899  1.00  0.00     0.002 C 
HETATM    6  O   UNL     1      14.551   3.211  -6.131  1.00  0.00    -0.366 OA
HETATM    7  C   UNL     1      13.311   4.221  -2.872  1.00  0.00     0.014 C 
HETATM    8  C   UNL     1      15.925   1.156  -4.617  1.00  0.00     0.016 C 
HETATM    9  C   UNL     1      14.462   3.152  -4.603  1.00  0.00     0.096 A 
HETATM   10  C   UNL     1      16.639   2.021  -5.655  1.00  0.00     0.019 C 
HETATM   11  C   UNL     1      15.532   2.312  -6.661  1.00  0.00     0.160 C 
HETATM   12  C   UNL     1      15.605   3.341  -4.013  1.00  0.00     0.021 A 
ENDROOT
BRANCH  11  13
HETATM   13  C   UNL     1      15.873   2.425  -8.147  1.00  0.00     0.181 C 
BRANCH  13  14
HETATM   14  O   UNL     1      16.380   3.738  -8.377  1.00  0.00    -0.388 OA
ATOM     15  HO  UNL     1      16.219   4.234  -7.583  1.00  0.00     0.210 HD
ENDBRANCH  13  14
BRANCH  13  16
HETATM   16  C   UNL     1      16.990   1.459  -8.505  1.00  0.00    -0.018 C 
HETATM   17  C   UNL     1      18.230   1.955  -8.881  1.00  0.00     0.027 C 
HETATM   18  C   UNL     1      19.311   1.091  -8.924  1.00  0.00     0.089 C 
HETATM   19  N   UNL     1      19.232  -0.178  -8.520  1.00  0.00    -0.369 N 
HETATM   20  C   UNL     1      18.048  -0.602  -8.065  1.00  0.00     0.015 C 
ATOM     21  HN  UNL     1      20.041  -0.799  -8.557  1.00  0.00     0.165 HD
HETATM   22  C   UNL     1      18.038  -1.795  -7.137  1.00  0.00     0.057 C 
HETATM   23  C   UNL     1      16.865   0.071  -8.366  1.00  0.00    -0.027 C 
HETATM   24  C   UNL     1      16.840  -2.683  -7.424  1.00  0.00     0.006 C 
HETATM   25  C   UNL     1      15.550  -1.873  -7.398  1.00  0.00     0.005 C 
HETATM   26  C   UNL     1      15.548  -0.670  -8.331  1.00  0.00     0.041 C 
ENDBRANCH  13  16
ENDBRANCH  11  13
BRANCH   4  27
HETATM   27  C   UNL     1      14.670   4.432  -0.710  1.00  0.00     0.175 C 
HETATM   28  O   UNL     1      14.466   3.426  -0.044  1.00  0.00    -0.291 OA
BRANCH  27  29
HETATM   29  C   UNL     1      15.106   5.676   0.019  1.00  0.00     0.086 C 
HETATM   30  C   UNL     1      16.607   5.685   0.234  1.00  0.00     0.143 C 
HETATM   31  C   UNL     1      17.011   7.136   0.391  1.00  0.00     0.084 C 
HETATM   32  O   UNL     1      17.343   4.724   0.100  1.00  0.00    -0.297 OA
HETATM   33  C   UNL     1      15.651   7.835   0.186  1.00  0.00    -0.006 C 
HETATM   34  C   UNL     1      14.825   7.561   1.438  1.00  0.00     0.007 C 
HETATM   35  C   UNL     1      14.985   6.924  -0.847  1.00  0.00     0.030 C 
HETATM   36  C   UNL     1      14.564   6.057   1.394  1.00  0.00     0.026 C 
ENDBRANCH  27  29
ENDBRANCH   4  27
TORSDOF 5
ENDMDL
