REMARK  6 active torsions:
REMARK  status: ('A' for Active; 'I' for Inactive)
REMARK    1  A    between atoms: N_7  and  C_28 
REMARK    2  A    between atoms: C_8  and  C_9 
REMARK    3  A    between atoms: O_15  and  C_31 
REMARK    4  A    between atoms: C_24  and  O_29 
REMARK    5  A    between atoms: C_26  and  C_33 
REMARK    6  A    between atoms: C_27  and  C_28 
ROOT
HETATM    1  C   UNL     1      14.862   8.350   1.287  1.00  0.00     0.045 C 
HETATM    2  C   UNL     1      15.563   6.534  -0.135  1.00  0.00     0.003 C 
HETATM    3  C   UNL     1      16.660   6.349   0.707  1.00  0.00     0.015 C 
HETATM    4  C   UNL     1      16.786   7.097   1.870  1.00  0.00     0.009 C 
HETATM    5  C   UNL     1      14.652   7.545   0.176  1.00  0.00     0.076 C 
HETATM    6  C   UNL     1      15.840   8.040   2.211  1.00  0.00    -0.049 C 
ENDROOT
BRANCH   2   7
HETATM    7  C   UNL     1      15.355   5.677  -1.330  1.00  0.00    -0.047 C 
HETATM    8  C   UNL     1      16.423   5.126  -1.954  1.00  0.00    -0.017 C 
HETATM    9  C   UNL     1      16.595   3.713  -2.451  1.00  0.00     0.058 C 
HETATM   10  C   UNL     1      15.444   2.751  -2.150  1.00  0.00     0.276 C 
HETATM   11  N   UNL     1      14.234   3.288  -2.800  1.00  0.00     0.093 N 
HETATM   12  C   UNL     1      13.355   4.162  -1.974  1.00  0.00     0.223 C 
HETATM   13  C   UNL     1      13.954   5.567  -1.895  1.00  0.00     0.074 C 
HETATM   14  C   UNL     1      13.071   3.532  -0.604  1.00  0.00     0.043 C 
BRANCH  11  15
HETATM   15  C   UNL     1      13.408   2.281  -3.454  1.00  0.00     0.277 C 
BRANCH  15  16
HETATM   16  C   UNL     1      13.609   1.977  -4.909  1.00  0.00     0.018 C 
HETATM   17  C   UNL     1      12.526   1.087  -5.508  1.00  0.00     0.011 C 
HETATM   18  C   UNL     1      12.534   1.478  -7.006  1.00  0.00    -0.014 C 
HETATM   19  C   UNL     1      11.477   2.589  -7.176  1.00  0.00     0.005 C 
HETATM   20  C   UNL     1      13.920   2.105  -7.261  1.00  0.00     0.010 C 
HETATM   21  C   UNL     1      11.892   3.980  -6.709  1.00  0.00     0.001 C 
HETATM   22  C   UNL     1      13.254   4.192  -6.048  1.00  0.00     0.005 C 
HETATM   23  C   UNL     1      14.128   2.930  -5.979  1.00  0.00    -0.008 C 
ENDBRANCH  15  16
ENDBRANCH  11  15
ENDBRANCH   2   7
BRANCH   5  24
HETATM   24  O   UNL     1      13.563   7.789  -0.611  1.00  0.00    -0.360 OA
ATOM     25  HO  UNL     1      13.419   7.238  -1.371  1.00  0.00     0.217 HD
ENDBRANCH   5  24
BRANCH   6  26
HETATM   26  C   UNL     1      15.820   8.743   3.546  1.00  0.00     0.048 C 
HETATM   27  C   UNL     1      16.020   7.896   4.807  1.00  0.00     0.017 C 
HETATM   28  C   UNL     1      15.789   8.981   5.856  1.00  0.00    -0.007 C 
HETATM   29  C   UNL     1      15.643   8.536   7.302  1.00  0.00     0.005 C 
HETATM   30  C   UNL     1      14.759   9.936   5.291  1.00  0.00     0.019 C 
HETATM   31  C   UNL     1      14.361   8.872   8.045  1.00  0.00     0.000 C 
HETATM   32  C   UNL     1      13.850  10.259   7.626  1.00  0.00     0.000 C 
HETATM   33  C   UNL     1      13.528  10.221   6.134  1.00  0.00     0.007 C 
HETATM   34  C   UNL     1      14.500   9.451   3.864  1.00  0.00     0.131 C 
BRANCH  34  35
HETATM   35  O   UNL     1      14.269  10.560   3.010  1.00  0.00    -0.394 OA
ATOM     36  HO  UNL     1      14.108  10.259   2.124  1.00  0.00     0.210 HD
ENDBRANCH  34  35
ENDBRANCH   6  26
TORSDOF 6
