REMARK  5 active torsions:
REMARK  status: ('A' for Active; 'I' for Inactive)
REMARK    1  A    between atoms: N_2  and  C_6 
REMARK    2  A    between atoms: C_5  and  C_6 
REMARK    3  A    between atoms: C_7  and  N_13 
REMARK    4  A    between atoms: O_10  and  C_24 
REMARK    5  A    between atoms: C_19  and  C_24 
ROOT
HETATM    1  C   UNL     1     -22.472 -23.775 -30.529  1.00  0.00     0.009 C 
HETATM    2  C   UNL     1     -23.769 -23.268 -30.289  1.00  0.00     0.105 C 
HETATM    3  C   UNL     1     -22.467 -22.453 -28.655  1.00  0.00     0.181 C 
HETATM    4  C   UNL     1     -21.700 -23.376 -29.466  1.00  0.00     0.051 C 
HETATM    5  N   UNL     1     -23.786 -22.601 -29.126  1.00  0.00    -0.337 N 
ATOM      6  HN  UNL     1     -24.623 -22.255 -28.656  1.00  0.00     0.164 HD
ENDROOT
BRANCH   1   7
HETATM    7  C   UNL     1     -21.912 -24.566 -31.670  1.00  0.00     0.117 C 
HETATM    8  C   UNL     1     -20.430 -24.424 -31.908  1.00  0.00     0.037 C 
BRANCH   7   9
HETATM    9  N   UNL     1     -22.662 -24.441 -32.902  1.00  0.00    -0.370 N 
HETATM   10  C   UNL     1     -22.875 -23.235 -33.707  1.00  0.00     0.128 C 
HETATM   11  C   UNL     1     -22.983 -23.781 -35.131  1.00  0.00     0.061 C 
HETATM   12  C   UNL     1     -23.134 -25.251 -34.945  1.00  0.00    -0.027 C 
HETATM   13  C   UNL     1     -23.113 -25.544 -33.574  1.00  0.00     0.052 C 
HETATM   14  C   UNL     1     -23.223 -26.292 -35.854  1.00  0.00     0.034 C 
HETATM   15  C   UNL     1     -23.362 -26.831 -33.112  1.00  0.00     0.118 C 
HETATM   16  N   UNL     1     -23.483 -27.816 -34.018  1.00  0.00    -0.367 N 
HETATM   17  C   UNL     1     -23.547 -27.552 -35.334  1.00  0.00     0.005 C 
ATOM     18  HN  UNL     1     -23.527 -28.784 -33.700  1.00  0.00     0.165 HD
HETATM   19  C   UNL     1     -24.204 -28.550 -36.254  1.00  0.00     0.068 C 
ENDBRANCH   7   9
ENDBRANCH   1   7
BRANCH   2  20
HETATM   20  N   UNL     1     -24.861 -23.400 -31.044  1.00  0.00    -0.385 N 
ATOM     21  HN2 UNL     1     -24.848 -23.907 -31.929  1.00  0.00     0.157 HD
ATOM     22  HN1 UNL     1     -25.797 -23.034 -30.871  1.00  0.00     0.157 HD
ENDBRANCH   2  20
BRANCH   3  23
HETATM   23  O   UNL     1     -22.075 -21.190 -28.996  1.00  0.00    -0.363 OA
ATOM     24  HO  UNL     1     -22.181 -21.054 -29.930  1.00  0.00     0.213 HD
ENDBRANCH   3  23
BRANCH   3  25
HETATM   25  C   UNL     1     -22.298 -22.670 -27.163  1.00  0.00     0.001 C 
HETATM   26  C   UNL     1     -21.402 -21.850 -26.452  1.00  0.00     0.012 C 
HETATM   27  C   UNL     1     -21.308 -21.616 -25.088  1.00  0.00     0.001 C 
HETATM   28  C   UNL     1     -21.913 -22.245 -24.000  1.00  0.00     0.000 C 
HETATM   29  C   UNL     1     -22.802 -23.320 -24.048  1.00  0.00     0.000 C 
HETATM   30  C   UNL     1     -23.286 -23.937 -25.208  1.00  0.00     0.001 C 
HETATM   31  C   UNL     1     -23.022 -23.687 -26.540  1.00  0.00     0.012 C 
ENDBRANCH   3  25
TORSDOF 5
